
  **** **** ******  **  PROGRAM STARTED AT               2024-11-05 12:59:30.109
 ***** ** ***  *** **   PROGRAM STARTED ON                       BOOK-4GL9QDET17
 **    ****   ******    PROGRAM STARTED BY                                 mattw
 ***** **    ** ** **   PROGRAM PROCESS ID                                 17849
  **** **  *******  **  PROGRAM STARTED IN             /home/mattw/work/NEB/NaCl

 CP2K| version string:                                          CP2K version 9.1
 CP2K| source code revision number:                                  git:d8d7100
 CP2K| cp2kflags: omp libint fftw3 libxc elpa parallel mpi3 scalapack spglib    
 CP2K| is freely available from                            https://www.cp2k.org/
 CP2K| Program compiled at                          Sun Jan  9 17:14:22 UTC 2022
 CP2K| Program compiled on                                       lcy02-amd64-025
 CP2K| Program compiled for                                Linux-x86_64-gfortran
 CP2K| Data directory path                                       /usr/share/cp2k
 CP2K| Input file name                                                  cp2k.inp

 GLOBAL| Force Environment number                                              1
 GLOBAL| Basis set file name                                        BASIS_MOLOPT
 GLOBAL| Potential file name                                           POTENTIAL
 GLOBAL| MM Potential file name                                     MM_POTENTIAL
 GLOBAL| Coordinate file name                                      __STD_INPUT__
 GLOBAL| Method name                                                        CP2K
 GLOBAL| Project name                                                       cp2k
 GLOBAL| Run type                                                   ENERGY_FORCE
 GLOBAL| FFT library                                                       FFTW3
 GLOBAL| Diagonalization library                                            ELPA
 GLOBAL| Minimum number of eigenvectors for ELPA usage                        16
 GLOBAL| Orthonormality check for eigenvectors                          DISABLED
 GLOBAL| Matrix multiplication library                                 ScaLAPACK
 GLOBAL| All-to-all communication in single precision                          F
 GLOBAL| FFTs using library dependent lengths                                  F
 GLOBAL| Grid backend                                                       AUTO
 GLOBAL| Global print level                                                  LOW
 GLOBAL| MPI I/O enabled                                                       T
 GLOBAL| Total number of message passing processes                             1
 GLOBAL| Number of threads for this process                                   16
 GLOBAL| This output is from process                                           0
 GLOBAL| Stack size for threads created by OpenMP (OMP_STACKSIZE)        default
 GLOBAL| CPU model name                      12th Gen Intel(R) Core(TM) i7-1260P

 MEMORY| system memory details [Kb]
 MEMORY|                        rank 0           min           max       average
 MEMORY| MemTotal             12251484      12251484      12251484      12251484
 MEMORY| MemFree              10107576      10107576      10107576      10107576
 MEMORY| Buffers                  9732          9732          9732          9732
 MEMORY| Cached                 212536        212536        212536        212536
 MEMORY| Slab                   286168        286168        286168        286168
 MEMORY| SReclaimable           222476        222476        222476        222476
 MEMORY| MemLikelyFree        10552320      10552320      10552320      10552320


 GENERATE|  Preliminary Number of Bonds generated:                             0
 GENERATE|  Achieved consistency in connectivity generation.

 *******************************************************************************
 *******************************************************************************
 **                                                                           **
 **     #####                         ##              ##                      **
 **    ##   ##            ##          ##              ##                      **
 **   ##     ##                       ##            ######                    **
 **   ##     ##  ##   ##  ##   #####  ##  ##   ####   ##    #####    #####    **
 **   ##     ##  ##   ##  ##  ##      ## ##   ##      ##   ##   ##  ##   ##   **
 **   ##  ## ##  ##   ##  ##  ##      ####     ###    ##   ######   ######    **
 **    ##  ###   ##   ##  ##  ##      ## ##      ##   ##   ##       ##        **
 **     #######   #####   ##   #####  ##  ##  ####    ##    #####   ##        **
 **           ##                                                    ##        **
 **                                                                           **
 **                                                ... make the atoms dance   **
 **                                                                           **
 **            Copyright (C) by CP2K developers group (2000-2021)             **
 **                      J. Chem. Phys. 152, 194103 (2020)                    **
 **                                                                           **
 *******************************************************************************


 TOTAL NUMBERS AND MAXIMUM NUMBERS

  Total number of            - Atomic kinds:                                   2
                             - Atoms:                                        512
                             - Shell sets:                                   512
                             - Shells:                                      2560
                             - Primitive Cartesian functions:               2816
                             - Cartesian basis functions:                   5888
                             - Spherical basis functions:                   5632

  Maximum angular momentum of- Orbital basis functions:                        2
                             - Local part of the GTH pseudopotential:          2
                             - Non-local part of the GTH pseudopotential:      2


 SCF PARAMETERS         Density guess:                                    ATOMIC
                        --------------------------------------------------------
                        max_scf:                                              50
                        max_scf_history:                                       0
                        max_diis:                                              4
                        --------------------------------------------------------
                        eps_scf:                                        1.00E-05
                        eps_scf_history:                                0.00E+00
                        eps_diis:                                       1.00E-01
                        eps_eigval:                                     1.00E-05
                        --------------------------------------------------------
                        level_shift [a.u.]:                                 0.00
                        --------------------------------------------------------
                        Mixing method:                           DIRECT_P_MIXING
                        --------------------------------------------------------
                        No outer SCF

 Number of electrons:                                                       4096
 Number of occupied orbitals:                                               2048
 Number of molecular orbitals:                                              2048

 Number of orbital functions:                                               5632
 Number of independent orbital functions:                                   5632

 Extrapolation method: initial_guess


 SCF WAVEFUNCTION OPTIMIZATION

  Step     Update method      Time    Convergence         Total energy    Change
  ------------------------------------------------------------------------------
     1 P_Mix/Diag. 0.40E+00  483.7     0.94031319    -16083.8206940061 -1.61E+04
     2 P_Mix/Diag. 0.40E+00  820.9     0.54651130    -16084.2723916991 -4.52E-01
     3 P_Mix/Diag. 0.40E+00 2206.0     0.32446193    -16084.4415132123 -1.69E-01
     4 P_Mix/Diag. 0.40E+00 2378.0     0.19420143    -16084.5352660989 -9.38E-02
     5 P_Mix/Diag. 0.40E+00 1139.9     0.11651251    -16084.5899481431 -5.47E-02
     6 P_Mix/Diag. 0.40E+00  684.2     0.06994758    -16084.6223001783 -3.24E-02
     7 DIIS/Diag.  0.20E-03  789.6     0.04204675    -16084.6415670743 -1.93E-02
     8 DIIS/Diag.  0.13E-05  830.5     0.00000220    -16084.6702909205 -2.87E-02

  *** SCF run converged in     8 steps ***


  Electronic density on regular grids:      -4095.9941197484        0.0058802516
  Core density on regular grids:             4095.9999998084       -0.0000001916
  Total charge density on r-space grids:        0.0058800600
  Total charge density g-space grids:           0.0058800600

  Overlap energy of the core charge distribution:               0.00000000000000
  Self energy of the core charge distribution:             -32378.57226434301629
  Core Hamiltonian energy:                                   9299.85095041535169
  Hartree energy:                                            9527.83212302455468
  Exchange-correlation energy:                              -2533.78110001736741

  Total energy:                                            -16084.67029092047778
AL| Coordinate file name                                      __STD_INPUT__
 GLOBAL| Method name                                                        CP2K
 GLOBAL| Project name                                                       cp2k
 GLOBAL| Run type                                                   ENERGY_FORCE
 GLOBAL| FFT library                                                       FFTW3
 GLOBAL| Diagonalization library                                            ELPA
 GLOBAL| Minimum number of eigenvectors for ELPA usage                        16
 GLOBAL| Orthonormality check for eigenvectors                          DISABLED
 GLOBAL| Matrix multiplication library                                 ScaLAPACK
 GLOBAL| All-to-all communication in single precision                          F
 GLOBAL| FFTs using library dependent lengths                                  F
 GLOBAL| Grid backend                                                       AUTO
 GLOBAL| Global print level                                                  LOW
 GLOBAL| MPI I/O enabled                                                       T
 GLOBAL| Total number of message passing processes                             1
 GLOBAL| Number of threads for this process                                   16
 GLOBAL| This output is from process                                           0
 GLOBAL| Stack size for threads created by OpenMP (OMP_STACKSIZE)        default
 GLOBAL| CPU model name                      12th Gen Intel(R) Core(TM) i7-1260P

 MEMORY| system memory details [Kb]
 MEMORY|                        rank 0           min           max       average
 MEMORY| MemTotal             12251484      12251484      12251484      12251484
 MEMORY| MemFree                806920        806920        806920        806920
 MEMORY| Buffers                 15628         15628         15628         15628
 MEMORY| Cached                 203616        203616        203616        203616
 MEMORY| Slab                   222060        222060        222060        222060
 MEMORY| SReclaimable           158492        158492        158492        158492
 MEMORY| MemLikelyFree         1184656       1184656       1184656       1184656


 GENERATE|  Preliminary Number of Bonds generated:                             0
 GENERATE|  Achieved consistency in connectivity generation.

 *******************************************************************************
 *******************************************************************************
 **                                                                           **
 **     #####                         ##              ##                      **
 **    ##   ##            ##          ##              ##                      **
 **   ##     ##                       ##            ######                    **
 **   ##     ##  ##   ##  ##   #####  ##  ##   ####   ##    #####    #####    **
 **   ##     ##  ##   ##  ##  ##      ## ##   ##      ##   ##   ##  ##   ##   **
 **   ##  ## ##  ##   ##  ##  ##      ####     ###    ##   ######   ######    **
 **    ##  ###   ##   ##  ##  ##      ## ##      ##   ##   ##       ##        **
 **     #######   #####   ##   #####  ##  ##  ####    ##    #####   ##        **
 **           ##                                                    ##        **
 **                                                                           **
 **                                                ... make the atoms dance   **
 **                                                                           **
 **            Copyright (C) by CP2K developers group (2000-2021)             **
 **                      J. Chem. Phys. 152, 194103 (2020)                    **
 **                                                                           **
