511
Lattice="22.48 0.0 0.0 0.0 22.48 0.0 0.0 0.0 22.48" Properties=species:S:1:pos:R:3:occupancy:R:1:bfactor:R:1:residuenames:S:1:atomtypes:S:1:residuenumbers:I:1:forces:R:3 energy=-2055.5671228537 free_energy=-2055.5671228537 stress="-0.0 -0.0 -0.0 -0.0 -0.0 -0.0 -0.0 -0.0 -0.0" pbc="T T T"
Na      -0.02302949       0.09159166       0.09159166       1.00000000       0.00000000 NMO Na        0       0.05469207       0.00440744       0.00440744
Na      -0.13787964       2.73751134       2.73751134       1.00000000       0.00000000 NMO Na        0      -0.03118939       0.00253228       0.00253228
Cl       2.81000000       1.06493578       1.06493578       1.00000000       0.00000000 CMO Cl        0       0.00000000      -0.23968681      -0.23968681
Na       2.81000000      -0.31138806       3.11435028       1.00000000       0.00000000 NMO Na        0       0.00000000       0.02211158      -0.04143730
Cl      -0.05789673       2.89062420      -0.03200717       1.00000000       0.00000000 CMO Cl        0       0.03478801       0.01214175       0.02628054
Na       2.81000000       3.11435028      -0.31138806       1.00000000       0.00000000 NMO Na        0       0.00000000      -0.04143730       0.02211158
Cl      -0.05789673      -0.03200717       2.89062420       1.00000000       0.00000000 CMO Cl        0       0.03478801       0.02628054       0.01214175
Na      -0.05501058      -0.01074994       5.66856275       1.00000000       0.00000000 NMO Na        0       0.00589872      -0.01142410      -0.00450587
Cl       2.81000000       2.82174798       8.48851254       1.00000000       0.00000000 CMO Cl        0       0.00000000      -0.00188919       0.01313973
Na      -0.01836232       2.80935744       8.46012846       1.00000000       0.00000000 NMO Na        0      -0.00504919       0.00519072       0.01437098
Cl       2.81000000       0.05616956       5.68196759       1.00000000       0.00000000 CMO Cl        0      -0.00000000       0.00034039      -0.00056129
Na       2.81000000      -0.02039323       8.47948108       1.00000000       0.00000000 NMO Na        0       0.00000000      -0.00658693       0.00970263
Cl       0.09711254       2.79922577       5.52469554       1.00000000       0.00000000 CMO Cl        0       0.00578810      -0.00669151       0.00242621
Na       2.81000000       2.81421564       5.86562513       1.00000000       0.00000000 NMO Na        0       0.00000000      -0.00857354       0.01435217
Cl       0.00129251       0.01429138       8.42251570       1.00000000       0.00000000 CMO Cl        0      -0.00088138       0.00333977       0.01227879
Na      -0.00511194      -0.00181566      11.24622246       1.00000000       0.00000000 NMO Na        0      -0.00452011       0.00075146       0.00822984
Cl       2.81000000       2.81287166      14.04676114       1.00000000       0.00000000 CMO Cl        0      -0.00000000       0.00370709      -0.00391867
Na      -0.00541009       2.81099293      14.04614171       1.00000000       0.00000000 NMO Na        0      -0.00368061      -0.00199900      -0.00214645
Cl       2.81000000      -0.00301764      11.24300947       1.00000000       0.00000000 CMO Cl        0      -0.00000000      -0.00429973      -0.00050577
Na       2.81000000      -0.00393870      14.03506581       1.00000000       0.00000000 NMO Na        0       0.00000000      -0.00484311      -0.00364731
Cl      -0.00263986       2.80993289      11.24011202       1.00000000       0.00000000 CMO Cl        0      -0.00467134       0.00022519       0.00314090
Na       2.81000000       2.81288928      11.25989672       1.00000000       0.00000000 NMO Na        0       0.00000000       0.00474765       0.01575563
Cl      -0.00195536       0.00054513      14.04924160       1.00000000       0.00000000 CMO Cl        0      -0.00342679       0.00027542      -0.00492286
Na      -0.01504943      -0.00035027      16.83654806       1.00000000       0.00000000 NMO Na        0       0.00112736      -0.00229862      -0.00209842
Cl       2.81000000       2.78548259      19.59564500       1.00000000       0.00000000 CMO Cl        0      -0.00000000       0.02500449      -0.01666690
Na      -0.04914852       2.81535151      19.63463985       1.00000000       0.00000000 NMO Na        0       0.00803532       0.00699905       0.00308005
Cl       2.81000000      -0.00870358      16.81625698       1.00000000       0.00000000 CMO Cl        0       0.00000000      -0.00003688      -0.01238692
Na       2.81000000       0.00970618      19.47419554       1.00000000       0.00000000 NMO Na        0      -0.00000000       0.01553514       0.01955310
Cl       0.00003984       2.79856379      16.86683280       1.00000000       0.00000000 CMO Cl        0      -0.00705703       0.00223556      -0.01510419
Na       2.81000000       2.82715925      16.81314128       1.00000000       0.00000000 NMO Na        0       0.00000000       0.00131068      -0.00202744
Cl       0.08449995       0.01699617      19.75124804       1.00000000       0.00000000 CMO Cl        0      -0.00192187       0.01164041      -0.00819488
Na      -0.05501058       5.66856275      -0.01074994       1.00000000       0.00000000 NMO Na        0       0.00589872      -0.00450587      -0.01142410
Cl       2.81000000       8.48851254       2.82174798       1.00000000       0.00000000 CMO Cl        0      -0.00000000       0.01313973      -0.00188919
Na      -0.01836232       8.46012846       2.80935744       1.00000000       0.00000000 NMO Na        0      -0.00504919       0.01437098       0.00519072
Cl       2.81000000       5.68196759       0.05616956       1.00000000       0.00000000 CMO Cl        0      -0.00000000      -0.00056129       0.00034039
Na       2.81000000       5.86562513       2.81421564       1.00000000       0.00000000 NMO Na        0      -0.00000000       0.01435217      -0.00857354
Cl       0.00129251       8.42251570       0.01429138       1.00000000       0.00000000 CMO Cl        0      -0.00088138       0.01227879       0.00333977
Na       2.81000000       8.47948108      -0.02039323       1.00000000       0.00000000 NMO Na        0       0.00000000       0.00970263      -0.00658693
Cl       0.09711254       5.52469554       2.79922577       1.00000000       0.00000000 CMO Cl        0       0.00578810       0.00242621      -0.00669151
Na      -0.01746302       5.62419345       5.62419345       1.00000000       0.00000000 NMO Na        0       0.00506201      -0.01193422      -0.01193422
Cl       2.81000000       8.41428011       8.41428011       1.00000000       0.00000000 CMO Cl        0      -0.00000000       0.00081410       0.00081410
Na      -0.00712325       8.43733500       8.43733500       1.00000000       0.00000000 NMO Na        0      -0.00110335      -0.00343920      -0.00343920
Cl       2.81000000       5.53568076       5.53568076       1.00000000       0.00000000 CMO Cl        0      -0.00000000       0.01037918       0.01037918
Na       2.81000000       5.64108770       8.45997149       1.00000000       0.00000000 NMO Na        0       0.00000000       0.01168093       0.01098800
Cl       0.01491464       8.40945287       5.60513178       1.00000000       0.00000000 CMO Cl        0       0.00253830      -0.01099658      -0.00891725
Na       2.81000000       8.45997149       5.64108770       1.00000000       0.00000000 NMO Na        0       0.00000000       0.01098800       0.01168093
Cl       0.01491464       5.60513178       8.40945287       1.00000000       0.00000000 CMO Cl        0       0.00253830      -0.00891725      -0.01099658
Na      -0.00262275       5.62262111      11.24678637       1.00000000       0.00000000 NMO Na        0       0.00054372      -0.00029905       0.00014967
Cl       2.81000000       8.42890010      14.05088947       1.00000000       0.00000000 CMO Cl        0      -0.00000000       0.00488846      -0.00331095
Na      -0.00238316       8.43282498      14.04927488       1.00000000       0.00000000 NMO Na        0      -0.00039260      -0.00041622       0.00009916
Cl       2.81000000       5.62428808      11.24016133       1.00000000       0.00000000 CMO Cl        0      -0.00000000       0.00734985       0.00430934
Na       2.81000000       5.62801979      14.04609415       1.00000000       0.00000000 NMO Na        0       0.00000000       0.00586032      -0.00717376
Cl       0.00300608       8.42527441      11.23467262       1.00000000       0.00000000 CMO Cl        0      -0.00006813      -0.00088376      -0.00118902
Na       2.81000000       8.43683885      11.24617846       1.00000000       0.00000000 NMO Na        0       0.00000000       0.00213555       0.00051013
Cl       0.00220197       5.61661803      14.05279644       1.00000000       0.00000000 CMO Cl        0      -0.00173815      -0.00047968      -0.00043618
Na      -0.00627174       5.62252439      16.85060228       1.00000000       0.00000000 NMO Na        0      -0.00228965       0.00086055      -0.00763763
Cl       2.81000000       8.43060141      19.67034327       1.00000000       0.00000000 CMO Cl        0      -0.00000000       0.02090383      -0.00348341
Na      -0.00649860       8.44024550      19.66513049       1.00000000       0.00000000 NMO Na        0      -0.00473493       0.00963214      -0.00651047
Cl       2.81000000       5.62295712      16.85581638       1.00000000       0.00000000 CMO Cl        0       0.00000000       0.01260949      -0.02393833
Na       2.81000000       5.69272045      19.59297111       1.00000000       0.00000000 NMO Na        0       0.00000000      -0.01143158       0.00300044
Cl       0.00377268       8.42355314      16.86668857       1.00000000       0.00000000 CMO Cl        0       0.00055895      -0.00046720       0.00128003
Na       2.81000000       8.44205466      16.84778197       1.00000000       0.00000000 NMO Na        0      -0.00000000       0.01287932      -0.01472709
Cl       0.03396250       5.60877696      19.68327866       1.00000000       0.00000000 CMO Cl        0      -0.01496102       0.02190875      -0.01295474
Na      -0.00511194      11.24622246      -0.00181566       1.00000000       0.00000000 NMO Na        0      -0.00452011       0.00822984       0.00075146
Cl       2.81000000      14.04676114       2.81287166       1.00000000       0.00000000 CMO Cl        0      -0.00000000      -0.00391867       0.00370709
Na      -0.00541009      14.04614171       2.81099293       1.00000000       0.00000000 NMO Na        0      -0.00368061      -0.00214645      -0.00199900
Cl       2.81000000      11.24300947      -0.00301764       1.00000000       0.00000000 CMO Cl        0      -0.00000000      -0.00050577      -0.00429973
Na       2.81000000      11.25989672       2.81288928       1.00000000       0.00000000 NMO Na        0       0.00000000       0.01575563       0.00474765
Cl      -0.00195536      14.04924160       0.00054513       1.00000000       0.00000000 CMO Cl        0      -0.00342679      -0.00492286       0.00027542
Na       2.81000000      14.03506581      -0.00393870       1.00000000       0.00000000 NMO Na        0       0.00000000      -0.00364731      -0.00484311
Cl      -0.00263986      11.24011202       2.80993289       1.00000000       0.00000000 CMO Cl        0      -0.00467134       0.00314090       0.00022519
Na      -0.00262275      11.24678637       5.62262111       1.00000000       0.00000000 NMO Na        0       0.00054372       0.00014967      -0.00029905
Cl       2.81000000      14.05088947       8.42890010       1.00000000       0.00000000 CMO Cl        0      -0.00000000      -0.00331095       0.00488846
Na      -0.00238316      14.04927488       8.43282498       1.00000000       0.00000000 NMO Na        0      -0.00039260       0.00009916      -0.00041622
Cl       2.81000000      11.24016133       5.62428808       1.00000000       0.00000000 CMO Cl        0      -0.00000000       0.00430934       0.00734985
Na       2.81000000      11.24617846       8.43683885       1.00000000       0.00000000 NMO Na        0       0.00000000       0.00051013       0.00213555
Cl       0.00220197      14.05279644       5.61661803       1.00000000       0.00000000 CMO Cl        0      -0.00173815      -0.00043618      -0.00047968
Na       2.81000000      14.04609415       5.62801979       1.00000000       0.00000000 NMO Na        0       0.00000000      -0.00717376       0.00586032
Cl       0.00300608      11.23467262       8.42527441       1.00000000       0.00000000 CMO Cl        0      -0.00006813      -0.00118902      -0.00088376
Na      -0.00250072      11.24219806      11.24219806       1.00000000       0.00000000 NMO Na        0      -0.00043274       0.00022415       0.00022415
Cl       2.81000000      14.05214404      14.05214404       1.00000000       0.00000000 CMO Cl        0       0.00000000      -0.00062347      -0.00062347
Na      -0.00237389      14.04855076      14.04855076       1.00000000       0.00000000 NMO Na        0      -0.00025513       0.00099701       0.00099701
Cl       2.81000000      11.23706274      11.23706274       1.00000000       0.00000000 CMO Cl        0       0.00000000      -0.00044705      -0.00044705
Na       2.81000000      11.24209760      14.04864182       1.00000000       0.00000000 NMO Na        0      -0.00000000       0.00233203      -0.00124553
Cl       0.00192583      14.05085224      11.23854330       1.00000000       0.00000000 CMO Cl        0      -0.00011372       0.00002370      -0.00085098
Na       2.81000000      14.04864182      11.24209760       1.00000000       0.00000000 NMO Na        0      -0.00000000      -0.00124553       0.00233203
Cl       0.00192583      11.23854330      14.05085224       1.00000000       0.00000000 CMO Cl        0      -0.00011372      -0.00085098       0.00002370
Na      -0.00244541      11.24157042      16.85714021       1.00000000       0.00000000 NMO Na        0      -0.00049616       0.00136730      -0.00009439
Cl       2.81000000      14.04931864      19.66647181       1.00000000       0.00000000 CMO Cl        0       0.00000000      -0.00503481      -0.00493798
Na      -0.00229382      14.04552068      19.66731798       1.00000000       0.00000000 NMO Na        0       0.00112276       0.00403357       0.00015049
Cl       2.81000000      11.23815153      16.86161246       1.00000000       0.00000000 CMO Cl        0       0.00000000       0.00189344      -0.00386055
Na       2.81000000      11.24552428      19.66141384       1.00000000       0.00000000 NMO Na        0      -0.00000000       0.01096943      -0.00733929
Cl       0.00271655      14.05374977      16.86396134       1.00000000       0.00000000 CMO Cl        0      -0.00050126      -0.00113102      -0.00018383
Na       2.81000000      14.04586319      16.85429555       1.00000000       0.00000000 NMO Na        0      -0.00000000       0.00326325      -0.00008704
Cl       0.00249565      11.23575376      19.67409953       1.00000000       0.00000000 CMO Cl        0      -0.00075655      -0.00178793       0.00123093
Na      -0.01504943      16.83654806      -0.00035027       1.00000000       0.00000000 NMO Na        0       0.00112736      -0.00209842      -0.00229862
Cl       2.81000000      19.59564500       2.78548259       1.00000000       0.00000000 CMO Cl        0      -0.00000000      -0.01666690       0.02500449
Na      -0.04914852      19.63463985       2.81535151       1.00000000       0.00000000 NMO Na        0       0.00803532       0.00308005       0.00699905
Cl       2.81000000      16.81625698      -0.00870358       1.00000000       0.00000000 CMO Cl        0       0.00000000      -0.01238692      -0.00003688
Na       2.81000000      16.81314128       2.82715925       1.00000000       0.00000000 NMO Na        0       0.00000000      -0.00202744       0.00131068
Cl       0.08449995      19.75124804       0.01699617       1.00000000       0.00000000 CMO Cl        0      -0.00192187      -0.00819488       0.01164041
Na       2.81000000      19.47419554       0.00970618       1.00000000       0.00000000 NMO Na        0      -0.00000000       0.01955310       0.01553514
Cl       0.00003984      16.86683280       2.79856379       1.00000000       0.00000000 CMO Cl        0      -0.00705703      -0.01510419       0.00223556
Na      -0.00627174      16.85060228       5.62252439       1.00000000       0.00000000 NMO Na        0      -0.00228965      -0.00763763       0.00086055
Cl       2.81000000      19.67034327       8.43060141       1.00000000       0.00000000 CMO Cl        0      -0.00000000      -0.00348341       0.02090383
Na      -0.00649860      19.66513049       8.44024550       1.00000000       0.00000000 NMO Na        0      -0.00473493      -0.00651047       0.00963214
Cl       2.81000000      16.85581638       5.62295712       1.00000000       0.00000000 CMO Cl        0       0.00000000      -0.02393833       0.01260949
Na       2.81000000      16.84778197       8.44205466       1.00000000       0.00000000 NMO Na        0       0.00000000      -0.01472709       0.01287932
Cl       0.03396250      19.68327866       5.60877696       1.00000000       0.00000000 CMO Cl        0      -0.01496102      -0.01295474       0.02190875
Na       2.81000000      19.59297111       5.69272045       1.00000000       0.00000000 NMO Na        0       0.00000000       0.00300044      -0.01143158
Cl       0.00377268      16.86668857       8.42355314       1.00000000       0.00000000 CMO Cl        0       0.00055895       0.00128003      -0.00046720
Na      -0.00244541      16.85714021      11.24157042       1.00000000       0.00000000 NMO Na        0      -0.00049616      -0.00009439       0.00136730
Cl       2.81000000      19.66647181      14.04931864       1.00000000       0.00000000 CMO Cl        0      -0.00000000      -0.00493798      -0.00503481
Na      -0.00229382      19.66731798      14.04552068       1.00000000       0.00000000 NMO Na        0       0.00112276       0.00015049       0.00403357
Cl       2.81000000      16.86161246      11.23815153       1.00000000       0.00000000 CMO Cl        0      -0.00000000      -0.00386055       0.00189344
Na       2.81000000      16.85429555      14.04586319       1.00000000       0.00000000 NMO Na        0       0.00000000      -0.00008704       0.00326325
Cl       0.00249565      19.67409953      11.23575376       1.00000000       0.00000000 CMO Cl        0      -0.00075655       0.00123093      -0.00178793
Na       2.81000000      19.66141384      11.24552428       1.00000000       0.00000000 NMO Na        0      -0.00000000      -0.00733929       0.01096943
Cl       0.00271655      16.86396134      14.05374977       1.00000000       0.00000000 CMO Cl        0      -0.00050126      -0.00018383      -0.00113102
Na      -0.00632228      16.85425648      16.85425648       1.00000000       0.00000000 NMO Na        0       0.00061305       0.00645954       0.00645954
Cl       2.81000000      19.74896990      19.74896990       1.00000000       0.00000000 CMO Cl        0       0.00000000      -0.01436050      -0.01436050
Na      -0.01454958      19.67101773      19.67101773       1.00000000       0.00000000 NMO Na        0       0.00846919       0.01967123       0.01967123
Cl       2.81000000      16.87419949      16.87419949       1.00000000       0.00000000 CMO Cl        0       0.00000000      -0.00277079      -0.00277079
Na       2.81000000      16.83869229      19.65386101       1.00000000       0.00000000 NMO Na        0      -0.00000000      -0.00002697      -0.00472936
Cl       0.01269315      19.68242501      16.87736662       1.00000000       0.00000000 CMO Cl        0      -0.00005620       0.00672701       0.00764692
Na       2.81000000      19.65386101      16.83869229       1.00000000       0.00000000 NMO Na        0      -0.00000000      -0.00472936      -0.00002697
Cl       0.01269315      16.87736662      19.68242501       1.00000000       0.00000000 CMO Cl        0      -0.00005620       0.00764692       0.00672701
Na       5.64302949       0.09159166       0.09159166       1.00000000       0.00000000 NMO Na        0      -0.05469207       0.00440744       0.00440744
Cl       8.44580290       2.80505142       2.80505142       1.00000000       0.00000000 CMO Cl        0       0.01359430       0.00014648       0.00014648
Na       5.75787964       2.73751134       2.73751134       1.00000000       0.00000000 NMO Na        0       0.03118939       0.00253228       0.00253228
Cl       8.42381520       0.01222977       0.01222977       1.00000000       0.00000000 CMO Cl        0      -0.01042867       0.00939867       0.00939867
Na       8.48558564      -0.02362934       2.82718654       1.00000000       0.00000000 NMO Na        0      -0.00278500      -0.00621925      -0.00267174
Cl       5.67789673       2.89062420      -0.03200717       1.00000000       0.00000000 CMO Cl        0      -0.03478801       0.01214175       0.02628054
Na       8.48558564       2.82718654      -0.02362934       1.00000000       0.00000000 NMO Na        0      -0.00278500      -0.00267174      -0.00621925
Cl       5.67789673      -0.03200717       2.89062420       1.00000000       0.00000000 CMO Cl        0      -0.03478801       0.02628054       0.01214175
Na       5.67501058      -0.01074994       5.66856275       1.00000000       0.00000000 NMO Na        0      -0.00589872      -0.01142410      -0.00450587
Cl       8.41190399       2.81064602       8.41323976       1.00000000       0.00000000 CMO Cl        0      -0.00740118       0.00230566      -0.00652463
Na       5.63836232       2.80935744       8.46012846       1.00000000       0.00000000 NMO Na        0       0.00504919       0.00519072       0.01437098
Cl       8.43262574       0.01216174       5.62752599       1.00000000       0.00000000 CMO Cl        0       0.01079761      -0.00442530       0.01010393
Na       8.44327601      -0.00517138       8.44088893       1.00000000       0.00000000 NMO Na        0       0.01600620       0.00140011       0.01183536
Cl       5.52288746       2.79922577       5.52469554       1.00000000       0.00000000 CMO Cl        0      -0.00578810      -0.00669151       0.00242621
Na       8.44793842       2.81136872       5.62439267       1.00000000       0.00000000 NMO Na        0       0.00106021      -0.00138922      -0.00646296
Cl       5.61870749       0.01429138       8.42251570       1.00000000       0.00000000 CMO Cl        0       0.00088138       0.00333977       0.01227879
Na       5.62511194      -0.00181566      11.24622246       1.00000000       0.00000000 NMO Na        0       0.00452011       0.00075146       0.00822984
Cl       8.42708049       2.80872608      14.05282591       1.00000000       0.00000000 CMO Cl        0       0.00284101       0.00065620      -0.00176266
Na       5.62541009       2.81099293      14.04614171       1.00000000       0.00000000 NMO Na        0       0.00368061      -0.00199900      -0.00214645
Cl       8.42635679       0.00202326      11.23565229       1.00000000       0.00000000 CMO Cl        0       0.00270237       0.00034660       0.00045956
Na       8.43636166      -0.00079233      14.04646865       1.00000000       0.00000000 NMO Na        0       0.00001577      -0.00102362       0.00242497
Cl       5.62263986       2.80993289      11.24011202       1.00000000       0.00000000 CMO Cl        0       0.00467134       0.00022519       0.00314090
Na       8.43723741       2.81035354      11.24556729       1.00000000       0.00000000 NMO Na        0       0.00113917       0.00043036       0.00100241
Cl       5.62195536       0.00054513      14.04924160       1.00000000       0.00000000 CMO Cl        0       0.00342679       0.00027542      -0.00492286
Na       5.63504943      -0.00035027      16.83654806       1.00000000       0.00000000 NMO Na        0      -0.00112736      -0.00229862      -0.00209842
Cl       8.42959633       2.80125823      19.66532831       1.00000000       0.00000000 CMO Cl        0       0.01540632       0.01097357      -0.00791900
Na       5.66914852       2.81535151      19.63463985       1.00000000       0.00000000 NMO Na        0      -0.00803532       0.00699905       0.00308005
Cl       8.41406221      -0.00007037      16.87473253       1.00000000       0.00000000 CMO Cl        0      -0.00368339      -0.00181997       0.00415862
Na       8.43779234      -0.00384028      19.67237782       1.00000000       0.00000000 NMO Na        0      -0.01602178       0.00066657       0.01653964
Cl       5.61996016       2.79856379      16.86683280       1.00000000       0.00000000 CMO Cl        0       0.00705703       0.00223556      -0.01510419
Na       8.44133786       2.81334162      16.85098392       1.00000000       0.00000000 NMO Na        0       0.01078795      -0.00497593      -0.00762395
Cl       5.53550005       0.01699617      19.75124804       1.00000000       0.00000000 CMO Cl        0       0.00192187       0.01164041      -0.00819488
Na       5.67501058       5.66856275      -0.01074994       1.00000000       0.00000000 NMO Na        0      -0.00589872      -0.00450587      -0.01142410
Cl       8.41190399       8.41323976       2.81064602       1.00000000       0.00000000 CMO Cl        0      -0.00740118      -0.00652463       0.00230566
Na       5.63836232       8.46012846       2.80935744       1.00000000       0.00000000 NMO Na        0       0.00504919       0.01437098       0.00519072
Cl       8.43262574       5.62752599       0.01216174       1.00000000       0.00000000 CMO Cl        0       0.01079761       0.01010393      -0.00442530
Na       8.44793842       5.62439267       2.81136872       1.00000000       0.00000000 NMO Na        0       0.00106021      -0.00646296      -0.00138922
Cl       5.61870749       8.42251570       0.01429138       1.00000000       0.00000000 CMO Cl        0       0.00088138       0.01227879       0.00333977
Na       8.44327601       8.44088893      -0.00517138       1.00000000       0.00000000 NMO Na        0       0.01600620       0.01183536       0.00140011
Cl       5.52288746       5.52469554       2.79922577       1.00000000       0.00000000 CMO Cl        0      -0.00578810       0.00242621      -0.00669151
Na       5.63746302       5.62419345       5.62419345       1.00000000       0.00000000 NMO Na        0      -0.00506201      -0.01193422      -0.01193422
Cl       8.42286774       8.42405965       8.42405965       1.00000000       0.00000000 CMO Cl        0      -0.00004645       0.00003283       0.00003283
Na       5.62712325       8.43733500       8.43733500       1.00000000       0.00000000 NMO Na        0       0.00110335      -0.00343920      -0.00343920
Cl       8.41227249       5.60869465       5.60869465       1.00000000       0.00000000 CMO Cl        0      -0.00908771      -0.00588182      -0.00588182
Na       8.43896385       5.62592547       8.43712432       1.00000000       0.00000000 NMO Na        0      -0.00086223       0.00123351      -0.00172730
Cl       5.60508536       8.40945287       5.60513178       1.00000000       0.00000000 CMO Cl        0      -0.00253830      -0.01099658      -0.00891725
Na       8.43896385       8.43712432       5.62592547       1.00000000       0.00000000 NMO Na        0      -0.00086223      -0.00172730       0.00123351
Cl       5.60508536       5.60513178       8.40945287       1.00000000       0.00000000 CMO Cl        0      -0.00253830      -0.00891725      -0.01099658
Na       5.62262275       5.62262111      11.24678637       1.00000000       0.00000000 NMO Na        0      -0.00054372      -0.00029905       0.00014967
Cl       8.42670028       8.42734671      14.05060075       1.00000000       0.00000000 CMO Cl        0      -0.00027866      -0.00043898       0.00012542
Na       5.62238316       8.43282498      14.04927488       1.00000000       0.00000000 NMO Na        0       0.00039260      -0.00041622       0.00009916
Cl       8.42443645       5.61705125      11.23487074       1.00000000       0.00000000 CMO Cl        0      -0.00061998      -0.00025163      -0.00126676
Na       8.43390920       5.62241556      14.04876299       1.00000000       0.00000000 NMO Na        0       0.00023910      -0.00002724       0.00019521
Cl       5.61699392       8.42527441      11.23467262       1.00000000       0.00000000 CMO Cl        0       0.00006813      -0.00088376      -0.00118902
Na       8.43374014       8.43301202      11.24285437       1.00000000       0.00000000 NMO Na        0       0.00014589       0.00018690       0.00026328
Cl       5.61779803       5.61661803      14.05279644       1.00000000       0.00000000 CMO Cl        0       0.00173815      -0.00047968      -0.00043618
Na       5.62627174       5.62252439      16.85060228       1.00000000       0.00000000 NMO Na        0       0.00228965       0.00086055      -0.00763763
Cl       8.42129156       8.42210361      19.67519216       1.00000000       0.00000000 CMO Cl        0      -0.00394254      -0.00174189       0.00071599
Na       5.62649860       8.44024550      19.66513049       1.00000000       0.00000000 NMO Na        0       0.00473493       0.00963214      -0.00651047
Cl       8.42199750       5.61605252      16.86754299       1.00000000       0.00000000 CMO Cl        0      -0.00273707       0.00052306       0.00151944
Na       8.43578006       5.62249369      19.66609979       1.00000000       0.00000000 NMO Na        0       0.00707419       0.00393496      -0.00568938
Cl       5.61622732       8.42355314      16.86668857       1.00000000       0.00000000 CMO Cl        0      -0.00055895      -0.00046720       0.00128003
Na       8.43403858       8.43310875      16.85679799       1.00000000       0.00000000 NMO Na        0      -0.00014426      -0.00045443       0.00014010
Cl       5.58603750       5.60877696      19.68327866       1.00000000       0.00000000 CMO Cl        0       0.01496102       0.02190875      -0.01295474