511
Lattice="22.48 0.0 0.0 0.0 22.48 0.0 0.0 0.0 22.48" Properties=species:S:1:pos:R:3:occupancy:R:1:bfactor:R:1:residuenames:S:1:atomtypes:S:1:residuenumbers:I:1:forces:R:3 energy=-2055.4671269943 free_energy=-2055.4671269943 stress="-0.0 -0.0 -0.0 -0.0 -0.0 -0.0 -0.0 -0.0 -0.0" pbc="T T T"
Na      -0.07787764       0.09031704       0.09031704       1.00000000       0.00000000 NMO Na        0       0.01572354       0.00624995       0.00624995
Na      -0.07787764       2.71968296       2.71968296       1.00000000       0.00000000 NMO Na        0       0.01572354      -0.00624995      -0.00624995
Cl       2.81000000       1.40500000       1.40500000       1.00000000       0.00000000 CMO Cl        0      -0.00000000       0.00000000      -0.00000000
Na       2.81000000      -0.32694898       3.13694898       1.00000000       0.00000000 NMO Na        0       0.00000000       0.02825621      -0.02825621
Cl      -0.06926579       2.87396413      -0.06396413       1.00000000       0.00000000 CMO Cl        0       0.02755930      -0.00032611       0.00032611
Na       2.81000000       3.13694898      -0.32694898       1.00000000       0.00000000 NMO Na        0       0.00000000      -0.02825621       0.02825621
Cl      -0.06926579      -0.06396413       2.87396413       1.00000000       0.00000000 CMO Cl        0       0.02755930       0.00032611      -0.00032611
Na      -0.05483828      -0.00806412       5.66399756       1.00000000       0.00000000 NMO Na        0       0.00634541      -0.00840341      -0.00640684
Cl       2.81000000       2.82129327       8.48317037       1.00000000       0.00000000 CMO Cl        0       0.00000000      -0.00213711       0.01434311
Na      -0.01695323       2.80969770       8.45707301       1.00000000       0.00000000 NMO Na        0      -0.00271623       0.00455086       0.00864658
Cl       2.81000000       0.04099452       5.69522416       1.00000000       0.00000000 CMO Cl        0      -0.00000000      -0.01398706       0.01664336
Na       2.81000000      -0.01915507       8.48007410       1.00000000       0.00000000 NMO Na        0       0.00000000      -0.00380771       0.00652422
Cl       0.09306560       2.79545745       5.52922162       1.00000000       0.00000000 CMO Cl        0       0.00298899      -0.01009562       0.00647705
Na       2.81000000       2.80776238       5.84700027       1.00000000       0.00000000 NMO Na        0      -0.00000000      -0.01186761      -0.00294100
Cl      -0.00017642       0.01311892       8.42356023       1.00000000       0.00000000 CMO Cl        0      -0.00284380       0.00022576       0.01414649
Na      -0.00535518      -0.00140751      11.24509770       1.00000000       0.00000000 NMO Na        0      -0.00475784       0.00150718       0.00603597
Cl       2.81000000       2.81297946      14.04651655       1.00000000       0.00000000 CMO Cl        0       0.00000000       0.00422805      -0.00131528
Na      -0.00535518       2.81140751      14.04490230       1.00000000       0.00000000 NMO Na        0      -0.00475784      -0.00150718      -0.00603597
Cl       2.81000000      -0.00297946      11.24348345       1.00000000       0.00000000 CMO Cl        0       0.00000000      -0.00422805       0.00131528
Na       2.81000000      -0.00349659      14.03233668       1.00000000       0.00000000 NMO Na        0       0.00000000      -0.00542693      -0.01056182
Cl      -0.00234738       2.80969798      11.24044132       1.00000000       0.00000000 CMO Cl        0      -0.00414071      -0.00011430       0.00434753
Na       2.81000000       2.81349659      11.25766332       1.00000000       0.00000000 NMO Na        0       0.00000000       0.00542693       0.01056182
Cl      -0.00234738       0.00030202      14.04955868       1.00000000       0.00000000 CMO Cl        0      -0.00414071       0.00011430      -0.00434753
Na      -0.01695323       0.00030230      16.83292699       1.00000000       0.00000000 NMO Na        0      -0.00271623      -0.00455086      -0.00864658
Cl       2.81000000       2.76900548      19.59477584       1.00000000       0.00000000 CMO Cl        0      -0.00000000       0.01398706      -0.01664336
Na      -0.05483828       2.81806412      19.62600244       1.00000000       0.00000000 NMO Na        0       0.00634541       0.00840341       0.00640684
Cl       2.81000000      -0.01129327      16.80682963       1.00000000       0.00000000 CMO Cl        0       0.00000000       0.00213711      -0.01434311
Na       2.81000000       0.00223762      19.44299973       1.00000000       0.00000000 NMO Na        0      -0.00000000       0.01186761       0.00294100
Cl      -0.00017642       2.79688108      16.86643977       1.00000000       0.00000000 CMO Cl        0      -0.00284380      -0.00022576      -0.01414649
Na       2.81000000       2.82915507      16.80992590       1.00000000       0.00000000 NMO Na        0      -0.00000000       0.00380771      -0.00652422
Cl       0.09306560       0.01454255      19.76077838       1.00000000       0.00000000 CMO Cl        0       0.00298899       0.01009562      -0.00647705
Na      -0.05483828       5.66399756      -0.00806412       1.00000000       0.00000000 NMO Na        0       0.00634541      -0.00640684      -0.00840341
Cl       2.81000000       8.48317037       2.82129327       1.00000000       0.00000000 CMO Cl        0       0.00000000       0.01434311      -0.00213711
Na      -0.01695323       8.45707301       2.80969770       1.00000000       0.00000000 NMO Na        0      -0.00271623       0.00864658       0.00455086
Cl       2.81000000       5.69522416       0.04099452       1.00000000       0.00000000 CMO Cl        0       0.00000000       0.01664336      -0.01398706
Na       2.81000000       5.84700027       2.80776238       1.00000000       0.00000000 NMO Na        0      -0.00000000      -0.00294100      -0.01186761
Cl      -0.00017642       8.42356023       0.01311892       1.00000000       0.00000000 CMO Cl        0      -0.00284380       0.01414649       0.00022576
Na       2.81000000       8.48007410      -0.01915507       1.00000000       0.00000000 NMO Na        0      -0.00000000       0.00652422      -0.00380771
Cl       0.09306560       5.52922162       2.79545745       1.00000000       0.00000000 CMO Cl        0       0.00298899       0.00647705      -0.01009562
Na      -0.01649106       5.62089544       5.62089544       1.00000000       0.00000000 NMO Na        0       0.00711966      -0.01760858      -0.01760858
Cl       2.81000000       8.41492783       8.41492783       1.00000000       0.00000000 CMO Cl        0       0.00000000       0.00221011       0.00221011
Na      -0.00682592       8.43655922       8.43655922       1.00000000       0.00000000 NMO Na        0      -0.00038382      -0.00536083      -0.00536083
Cl       2.81000000       5.53764780       5.53764780       1.00000000       0.00000000 CMO Cl        0      -0.00000000       0.01344969       0.01344969
Na       2.81000000       5.63909756       8.45610643       1.00000000       0.00000000 NMO Na        0       0.00000000       0.00914672       0.00566278
Cl       0.01398086       8.41076169       5.60614936       1.00000000       0.00000000 CMO Cl        0       0.00128433      -0.00956606      -0.00832230
Na       2.81000000       8.45610643       5.63909756       1.00000000       0.00000000 NMO Na        0       0.00000000       0.00566278       0.00914672
Cl       0.01398086       5.60614936       8.41076169       1.00000000       0.00000000 CMO Cl        0       0.00128433      -0.00832230      -0.00956606
Na      -0.00247200       5.62263344      11.24567312       1.00000000       0.00000000 NMO Na        0       0.00076383      -0.00025229      -0.00222187
Cl       2.81000000       8.42870708      14.05129405       1.00000000       0.00000000 CMO Cl        0      -0.00000000       0.00481730      -0.00286863
Na      -0.00244374       8.43282487      14.04886736       1.00000000       0.00000000 NMO Na        0      -0.00056694      -0.00019003      -0.00077134
Cl       2.81000000       5.62403806      11.24044540       1.00000000       0.00000000 CMO Cl        0       0.00000000       0.00663600       0.00523153
Na       2.81000000       5.62839447      14.04519950       1.00000000       0.00000000 NMO Na        0      -0.00000000       0.00733259      -0.01040132
Cl       0.00289804       8.42564292      11.23541598       1.00000000       0.00000000 CMO Cl        0      -0.00023876      -0.00040610       0.00002523
Na       2.81000000       8.43630072      11.24522504       1.00000000       0.00000000 NMO Na        0      -0.00000000       0.00127664      -0.00146426
Cl       0.00236099       5.61624426      14.05346701       1.00000000       0.00000000 CMO Cl        0      -0.00124358      -0.00099697       0.00079948
Na      -0.00651648       5.62347226      16.85003412       1.00000000       0.00000000 NMO Na        0      -0.00448508       0.00446463      -0.01005200
Cl       2.81000000       8.43390196      19.66771462       1.00000000       0.00000000 CMO Cl        0       0.00000000       0.02222202      -0.00733932
Na      -0.00651648       8.43996588      19.66652774       1.00000000       0.00000000 NMO Na        0      -0.00448508       0.01005200      -0.00446463
Cl       2.81000000       5.62228538      16.85609804       1.00000000       0.00000000 CMO Cl        0      -0.00000000       0.00733932      -0.02222202
Na       2.81000000       5.69940655      19.59059345       1.00000000       0.00000000 NMO Na        0      -0.00000000      -0.00705785       0.00705785
Cl       0.00386670       8.42337177      16.86662823       1.00000000       0.00000000 CMO Cl        0       0.00074478      -0.00102819       0.00102819
Na       2.81000000       8.44272401      16.84727599       1.00000000       0.00000000 NMO Na        0       0.00000000       0.01524178      -0.01524178
Cl       0.03562643       5.60839158      19.68160842       1.00000000       0.00000000 CMO Cl        0      -0.01428610       0.01888326      -0.01888326
Na      -0.00535518      11.24509770      -0.00140751       1.00000000       0.00000000 NMO Na        0      -0.00475784       0.00603597       0.00150718
Cl       2.81000000      14.04651655       2.81297946       1.00000000       0.00000000 CMO Cl        0       0.00000000      -0.00131528       0.00422805
Na      -0.00535518      14.04490230       2.81140751       1.00000000       0.00000000 NMO Na        0      -0.00475784      -0.00603597      -0.00150718
Cl       2.81000000      11.24348345      -0.00297946       1.00000000       0.00000000 CMO Cl        0      -0.00000000       0.00131528      -0.00422805
Na       2.81000000      11.25766332       2.81349659       1.00000000       0.00000000 NMO Na        0      -0.00000000       0.01056182       0.00542693
Cl      -0.00234738      14.04955868       0.00030202       1.00000000       0.00000000 CMO Cl        0      -0.00414071      -0.00434753       0.00011430
Na       2.81000000      14.03233668      -0.00349659       1.00000000       0.00000000 NMO Na        0       0.00000000      -0.01056182      -0.00542693
Cl      -0.00234738      11.24044132       2.80969798       1.00000000       0.00000000 CMO Cl        0      -0.00414071       0.00434753      -0.00011430
Na      -0.00247200      11.24567312       5.62263344       1.00000000       0.00000000 NMO Na        0       0.00076383      -0.00222187      -0.00025229
Cl       2.81000000      14.05129405       8.42870708       1.00000000       0.00000000 CMO Cl        0      -0.00000000      -0.00286863       0.00481730
Na      -0.00244374      14.04886736       8.43282487       1.00000000       0.00000000 NMO Na        0      -0.00056694      -0.00077134      -0.00019003
Cl       2.81000000      11.24044540       5.62403806       1.00000000       0.00000000 CMO Cl        0       0.00000000       0.00523153       0.00663600
Na       2.81000000      11.24522504       8.43630072       1.00000000       0.00000000 NMO Na        0      -0.00000000      -0.00146426       0.00127664
Cl       0.00236099      14.05346701       5.61624426       1.00000000       0.00000000 CMO Cl        0      -0.00124358       0.00079948      -0.00099697
Na       2.81000000      14.04519950       5.62839447       1.00000000       0.00000000 NMO Na        0      -0.00000000      -0.01040132       0.00733259
Cl       0.00289804      11.23541598       8.42564292       1.00000000       0.00000000 CMO Cl        0      -0.00023876       0.00002523      -0.00040610
Na      -0.00246453      11.24183481      11.24183481       1.00000000       0.00000000 NMO Na        0      -0.00039798      -0.00043961      -0.00043961
Cl       2.81000000      14.05255895      14.05255895       1.00000000       0.00000000 CMO Cl        0       0.00000000      -0.00014107      -0.00014107
Na      -0.00246453      14.04816519      14.04816519       1.00000000       0.00000000 NMO Na        0      -0.00039798       0.00043961       0.00043961
Cl       2.81000000      11.23744105      11.23744105       1.00000000       0.00000000 CMO Cl        0      -0.00000000       0.00014107       0.00014107
Na       2.81000000      11.24175258      14.04824742       1.00000000       0.00000000 NMO Na        0      -0.00000000       0.00202098      -0.00202098
Cl       0.00195646      14.05115741      11.23884259       1.00000000       0.00000000 CMO Cl        0      -0.00003483       0.00052491      -0.00052491
Na       2.81000000      14.04824742      11.24175258       1.00000000       0.00000000 NMO Na        0      -0.00000000      -0.00202098       0.00202098
Cl       0.00195646      11.23884259      14.05115741       1.00000000       0.00000000 CMO Cl        0      -0.00003483      -0.00052491       0.00052491
Na      -0.00244374      11.24113264      16.85717513       1.00000000       0.00000000 NMO Na        0      -0.00056694       0.00077134       0.00019003
Cl       2.81000000      14.04955460      19.66596194       1.00000000       0.00000000 CMO Cl        0      -0.00000000      -0.00523153      -0.00663600
Na      -0.00247200      14.04432688      19.66736656       1.00000000       0.00000000 NMO Na        0       0.00076383       0.00222187       0.00025229
Cl       2.81000000      11.23870595      16.86129292       1.00000000       0.00000000 CMO Cl        0      -0.00000000       0.00286863      -0.00481730
Na       2.81000000      11.24480050      19.66160553       1.00000000       0.00000000 NMO Na        0       0.00000000       0.01040132      -0.00733259
Cl       0.00289804      14.05458402      16.86435708       1.00000000       0.00000000 CMO Cl        0      -0.00023876      -0.00002523       0.00040610
Na       2.81000000      14.04477496      16.85369928       1.00000000       0.00000000 NMO Na        0       0.00000000       0.00146426      -0.00127664
Cl       0.00236099      11.23653299      19.67375574       1.00000000       0.00000000 CMO Cl        0      -0.00124358      -0.00079948       0.00099697
Na      -0.01695323      16.83292699       0.00030230       1.00000000       0.00000000 NMO Na        0      -0.00271623      -0.00864658      -0.00455086
Cl       2.81000000      19.59477584       2.76900548       1.00000000       0.00000000 CMO Cl        0      -0.00000000      -0.01664336       0.01398706
Na      -0.05483828      19.62600244       2.81806412       1.00000000       0.00000000 NMO Na        0       0.00634541       0.00640684       0.00840341
Cl       2.81000000      16.80682963      -0.01129327       1.00000000       0.00000000 CMO Cl        0       0.00000000      -0.01434311       0.00213711
Na       2.81000000      16.80992590       2.82915507       1.00000000       0.00000000 NMO Na        0      -0.00000000      -0.00652422       0.00380771
Cl       0.09306560      19.76077838       0.01454255       1.00000000       0.00000000 CMO Cl        0       0.00298899      -0.00647705       0.01009562
Na       2.81000000      19.44299973       0.00223762       1.00000000       0.00000000 NMO Na        0       0.00000000       0.00294100       0.01186761
Cl      -0.00017642      16.86643977       2.79688108       1.00000000       0.00000000 CMO Cl        0      -0.00284380      -0.01414649      -0.00022576
Na      -0.00651648      16.85003412       5.62347226       1.00000000       0.00000000 NMO Na        0      -0.00448508      -0.01005200       0.00446463
Cl       2.81000000      19.66771462       8.43390196       1.00000000       0.00000000 CMO Cl        0      -0.00000000      -0.00733932       0.02222202
Na      -0.00651648      19.66652774       8.43996588       1.00000000       0.00000000 NMO Na        0      -0.00448508      -0.00446463       0.01005200
Cl       2.81000000      16.85609804       5.62228538       1.00000000       0.00000000 CMO Cl        0      -0.00000000      -0.02222202       0.00733932
Na       2.81000000      16.84727599       8.44272401       1.00000000       0.00000000 NMO Na        0       0.00000000      -0.01524178       0.01524178
Cl       0.03562643      19.68160842       5.60839158       1.00000000       0.00000000 CMO Cl        0      -0.01428610      -0.01888326       0.01888326
Na       2.81000000      19.59059345       5.69940655       1.00000000       0.00000000 NMO Na        0      -0.00000000       0.00705785      -0.00705785
Cl       0.00386670      16.86662823       8.42337177       1.00000000       0.00000000 CMO Cl        0       0.00074478       0.00102819      -0.00102819
Na      -0.00244374      16.85717513      11.24113264       1.00000000       0.00000000 NMO Na        0      -0.00056694       0.00019003       0.00077134
Cl       2.81000000      19.66596194      14.04955460       1.00000000       0.00000000 CMO Cl        0      -0.00000000      -0.00663600      -0.00523153
Na      -0.00247200      19.66736656      14.04432688       1.00000000       0.00000000 NMO Na        0       0.00076383       0.00025229       0.00222187
Cl       2.81000000      16.86129292      11.23870595       1.00000000       0.00000000 CMO Cl        0      -0.00000000      -0.00481730       0.00286863
Na       2.81000000      16.85369928      14.04477496       1.00000000       0.00000000 NMO Na        0       0.00000000      -0.00127664       0.00146426
Cl       0.00236099      19.67375574      11.23653299       1.00000000       0.00000000 CMO Cl        0      -0.00124358       0.00099697      -0.00079948
Na       2.81000000      19.66160553      11.24480050       1.00000000       0.00000000 NMO Na        0       0.00000000      -0.00733259       0.01040132
Cl       0.00289804      16.86435708      14.05458402       1.00000000       0.00000000 CMO Cl        0      -0.00023876       0.00040610      -0.00002523
Na      -0.00682592      16.85344078      16.85344078       1.00000000       0.00000000 NMO Na        0      -0.00038382       0.00536083       0.00536083
Cl       2.81000000      19.75235220      19.75235220       1.00000000       0.00000000 CMO Cl        0       0.00000000      -0.01344969      -0.01344969
Na      -0.01649106      19.66910456      19.66910456       1.00000000       0.00000000 NMO Na        0       0.00711966       0.01760858       0.01760858
Cl       2.81000000      16.87507217      16.87507217       1.00000000       0.00000000 CMO Cl        0       0.00000000      -0.00221011      -0.00221011
Na       2.81000000      16.83389357      19.65090244       1.00000000       0.00000000 NMO Na        0      -0.00000000      -0.00566278      -0.00914672
Cl       0.01398086      19.68385064      16.87923831       1.00000000       0.00000000 CMO Cl        0       0.00128433       0.00832230       0.00956606
Na       2.81000000      19.65090244      16.83389357       1.00000000       0.00000000 NMO Na        0      -0.00000000      -0.00914672      -0.00566278
Cl       0.01398086      16.87923831      19.68385064       1.00000000       0.00000000 CMO Cl        0       0.00128433       0.00956606       0.00832230
Na       5.69787764       0.09031704       0.09031704       1.00000000       0.00000000 NMO Na        0      -0.01572354       0.00624995       0.00624995
Cl       8.43278667       2.80112688       2.80112688       1.00000000       0.00000000 CMO Cl        0       0.00233100      -0.00457870      -0.00457870
Na       5.69787764       2.71968296       2.71968296       1.00000000       0.00000000 NMO Na        0      -0.01572354      -0.00624995      -0.00624995
Cl       8.43278667       0.00887312       0.00887312       1.00000000       0.00000000 CMO Cl        0       0.00233100       0.00457870       0.00457870
Na       8.48817083      -0.02132122       2.83132122       1.00000000       0.00000000 NMO Na        0      -0.00474889      -0.00148517       0.00148517
Cl       5.68926579       2.87396413      -0.06396413       1.00000000       0.00000000 CMO Cl        0      -0.02755930      -0.00032611       0.00032611
Na       8.48817083       2.83132122      -0.02132122       1.00000000       0.00000000 NMO Na        0      -0.00474889       0.00148517      -0.00148517
Cl       5.68926579      -0.06396413       2.87396413       1.00000000       0.00000000 CMO Cl        0      -0.02755930       0.00032611      -0.00032611
Na       5.67483828      -0.00806412       5.66399756       1.00000000       0.00000000 NMO Na        0      -0.00634541      -0.00840341      -0.00640684
Cl       8.41264930       2.81049169       8.41406721       1.00000000       0.00000000 CMO Cl        0      -0.00603573       0.00223995      -0.00540048
Na       5.63695323       2.80969770       8.45707301       1.00000000       0.00000000 NMO Na        0       0.00271623       0.00455086       0.00864658
Cl       8.43324985       0.01062002       5.62812121       1.00000000       0.00000000 CMO Cl        0       0.01359753      -0.00881469       0.01028003
Na       8.44271872      -0.00428299       8.44022818       1.00000000       0.00000000 NMO Na        0       0.01485884       0.00358841       0.01036942
Cl       5.52693440       2.79545745       5.52922162       1.00000000       0.00000000 CMO Cl        0      -0.00298899      -0.01009562       0.00647705
Na       8.44218936       2.81258974       5.62001041       1.00000000       0.00000000 NMO Na        0      -0.00885413      -0.00125172      -0.01335403
Cl       5.62017642       0.01311892       8.42356023       1.00000000       0.00000000 CMO Cl        0       0.00284380       0.00022576       0.01414649
Na       5.62535518      -0.00140751      11.24509770       1.00000000       0.00000000 NMO Na        0       0.00475784       0.00150718       0.00603597
Cl       8.42670238       2.80834485      14.05354397       1.00000000       0.00000000 CMO Cl        0       0.00291153       0.00022028      -0.00135507
Na       5.62535518       2.81140751      14.04490230       1.00000000       0.00000000 NMO Na        0       0.00475784      -0.00150718      -0.00603597
Cl       8.42670238       0.00165515      11.23645603       1.00000000       0.00000000 CMO Cl        0       0.00291153      -0.00022028       0.00135507
Na       8.43685971      -0.00055879      14.04543490       1.00000000       0.00000000 NMO Na        0       0.00072137      -0.00079971       0.00085589
Cl       5.62234738       2.80969798      11.24044132       1.00000000       0.00000000 CMO Cl        0       0.00414071      -0.00011430       0.00434753
Na       8.43685971       2.81055879      11.24456510       1.00000000       0.00000000 NMO Na        0       0.00072137       0.00079971      -0.00085589
Cl       5.62234738       0.00030202      14.04955868       1.00000000       0.00000000 CMO Cl        0       0.00414071       0.00011430      -0.00434753
Na       5.63695323       0.00030230      16.83292699       1.00000000       0.00000000 NMO Na        0       0.00271623      -0.00455086      -0.00864658
Cl       8.43324985       2.79937998      19.66187879       1.00000000       0.00000000 CMO Cl        0       0.01359753       0.00881469      -0.01028003
Na       5.67483828       2.81806412      19.62600244       1.00000000       0.00000000 NMO Na        0      -0.00634541       0.00840341       0.00640684
Cl       8.41264930      -0.00049169      16.87593279       1.00000000       0.00000000 CMO Cl        0      -0.00603573      -0.00223995       0.00540048
Na       8.44218936      -0.00258974      19.66998959       1.00000000       0.00000000 NMO Na        0      -0.00885413       0.00125172       0.01335403
Cl       5.62017642       2.79688108      16.86643977       1.00000000       0.00000000 CMO Cl        0       0.00284380      -0.00022576      -0.01414649
Na       8.44271872       2.81428299      16.84977182       1.00000000       0.00000000 NMO Na        0       0.01485884      -0.00358841      -0.01036942
Cl       5.52693440       0.01454255      19.76077838       1.00000000       0.00000000 CMO Cl        0      -0.00298899       0.01009562      -0.00647705
Na       5.67483828       5.66399756      -0.00806412       1.00000000       0.00000000 NMO Na        0      -0.00634541      -0.00640684      -0.00840341
Cl       8.41264930       8.41406721       2.81049169       1.00000000       0.00000000 CMO Cl        0      -0.00603573      -0.00540048       0.00223995
Na       5.63695323       8.45707301       2.80969770       1.00000000       0.00000000 NMO Na        0       0.00271623       0.00864658       0.00455086
Cl       8.43324985       5.62812121       0.01062002       1.00000000       0.00000000 CMO Cl        0       0.01359753       0.01028003      -0.00881469
Na       8.44218936       5.62001041       2.81258974       1.00000000       0.00000000 NMO Na        0      -0.00885413      -0.01335403      -0.00125172
Cl       5.62017642       8.42356023       0.01311892       1.00000000       0.00000000 CMO Cl        0       0.00284380       0.01414649       0.00022576
Na       8.44271872       8.44022818      -0.00428299       1.00000000       0.00000000 NMO Na        0       0.01485884       0.01036942       0.00358841
Cl       5.52693440       5.52922162       2.79545745       1.00000000       0.00000000 CMO Cl        0      -0.00298899       0.00647705      -0.01009562
Na       5.63649106       5.62089544       5.62089544       1.00000000       0.00000000 NMO Na        0      -0.00711966      -0.01760858      -0.01760858
Cl       8.42336821       8.42473606       8.42473606       1.00000000       0.00000000 CMO Cl        0       0.00076672       0.00112525       0.00112525
Na       5.62682592       8.43655922       8.43655922       1.00000000       0.00000000 NMO Na        0       0.00038382      -0.00536083      -0.00536083
Cl       8.41424424       5.61025207       5.61025207       1.00000000       0.00000000 CMO Cl        0      -0.00705083      -0.00474003      -0.00474003
Na       8.43839441       5.62555302       8.43630933       1.00000000       0.00000000 NMO Na        0      -0.00208572       0.00060818      -0.00336531
Cl       5.60601914       8.41076169       5.60614936       1.00000000       0.00000000 CMO Cl        0      -0.00128433      -0.00956606      -0.00832230
Na       8.43839441       8.43630933       5.62555302       1.00000000       0.00000000 NMO Na        0      -0.00208572      -0.00336531       0.00060818
Cl       5.60601914       5.60614936       8.41076169       1.00000000       0.00000000 CMO Cl        0      -0.00128433      -0.00832230      -0.00956606
Na       5.62247200       5.62263344      11.24567312       1.00000000       0.00000000 NMO Na        0      -0.00076383      -0.00025229      -0.00222187
Cl       8.42668527       8.42737987      14.05091568       1.00000000       0.00000000 CMO Cl        0      -0.00041275      -0.00050431       0.00069747
Na       5.62244374       8.43282487      14.04886736       1.00000000       0.00000000 NMO Na        0       0.00056694      -0.00019003      -0.00077134
Cl       8.42466265       5.61705205      11.23564101       1.00000000       0.00000000 CMO Cl        0      -0.00039520      -0.00017578       0.00000071
Na       8.43399470       5.62263167      14.04825827       1.00000000       0.00000000 NMO Na        0       0.00041448       0.00035586      -0.00076198
Cl       5.61710196       8.42564292      11.23541598       1.00000000       0.00000000 CMO Cl        0       0.00023876      -0.00040610       0.00002523
Na       8.43361727       8.43279426      11.24236856       1.00000000       0.00000000 NMO Na        0      -0.00002456      -0.00015055      -0.00059563
Cl       5.61763901       5.61624426      14.05346701       1.00000000       0.00000000 CMO Cl        0       0.00124358      -0.00099697       0.00079948
Na       5.62651648       5.62347226      16.85003412       1.00000000       0.00000000 NMO Na        0       0.00448508       0.00446463      -0.01005200
Cl       8.42150098       8.42221726      19.67449338       1.00000000       0.00000000 CMO Cl        0      -0.00382906      -0.00164352       0.00001747
Na       5.62651648       8.43996588      19.66652774       1.00000000       0.00000000 NMO Na        0       0.00448508       0.01005200      -0.00446463
Cl       8.42150098       5.61550662      16.86778274       1.00000000       0.00000000 CMO Cl        0      -0.00382906      -0.00001747       0.00164352
Na       8.43548464       5.62280780      19.66719220       1.00000000       0.00000000 NMO Na        0       0.00817674       0.00494652      -0.00494652
Cl       5.61613330       8.42337177      16.86662823       1.00000000       0.00000000 CMO Cl        0      -0.00074478      -0.00102819       0.00102819
Na       8.43407648       8.43311642      16.85688358       1.00000000       0.00000000 NMO Na        0      -0.00000471      -0.00032605       0.00032605
Cl       5.58437357       5.60839158      19.68160842       1.00000000       0.00000000 CMO Cl        0       0.01428610       0.01888326      -0.01888326