
  **** **** ******  **  PROGRAM STARTED AT               2024-11-06 09:01:15.254
 ***** ** ***  *** **   PROGRAM STARTED ON                       BOOK-4GL9QDET17
 **    ****   ******    PROGRAM STARTED BY                                 mattw
 ***** **    ** ** **   PROGRAM PROCESS ID                                  8717
  **** **  *******  **  PROGRAM STARTED IN             /home/mattw/work/NEB/NaCl

 CP2K| version string:                                          CP2K version 9.1
 CP2K| source code revision number:                                  git:d8d7100
 CP2K| cp2kflags: omp libint fftw3 libxc elpa parallel mpi3 scalapack spglib    
 CP2K| is freely available from                            https://www.cp2k.org/
 CP2K| Program compiled at                          Sun Jan  9 17:14:22 UTC 2022
 CP2K| Program compiled on                                       lcy02-amd64-025
 CP2K| Program compiled for                                Linux-x86_64-gfortran
 CP2K| Data directory path                                       /usr/share/cp2k
 CP2K| Input file name                                                  NaCl.inp

 GLOBAL| Force Environment number                                              1
 GLOBAL| Basis set file name                                           BASIS_SET
 GLOBAL| Potential file name                                           POTENTIAL
 GLOBAL| MM Potential file name                                     MM_POTENTIAL
 GLOBAL| Coordinate file name                                      __STD_INPUT__
 GLOBAL| Method name                                                        CP2K
 GLOBAL| Project name                                                       NaCl
 GLOBAL| Run type                                                   ENERGY_FORCE
 GLOBAL| FFT library                                                       FFTW3
 GLOBAL| Diagonalization library                                            ELPA
 GLOBAL| Minimum number of eigenvectors for ELPA usage                        16
 GLOBAL| Orthonormality check for eigenvectors                          DISABLED
 GLOBAL| Matrix multiplication library                                 ScaLAPACK
 GLOBAL| All-to-all communication in single precision                          F
 GLOBAL| FFTs using library dependent lengths                                  F
 GLOBAL| Grid backend                                                       AUTO
 GLOBAL| Global print level                                                  LOW
 GLOBAL| MPI I/O enabled                                                       T
 GLOBAL| Total number of message passing processes                             1
 GLOBAL| Number of threads for this process                                   16
 GLOBAL| This output is from process                                           0
 GLOBAL| Stack size for threads created by OpenMP (OMP_STACKSIZE)        default
 GLOBAL| CPU model name                      12th Gen Intel(R) Core(TM) i7-1260P

 MEMORY| system memory details [Kb]
 MEMORY|                        rank 0           min           max       average
 MEMORY| MemTotal             12251484      12251484      12251484      12251484
 MEMORY| MemFree              10700564      10700564      10700564      10700564
 MEMORY| Buffers                 39196         39196         39196         39196
 MEMORY| Cached                 291736        291736        291736        291736
 MEMORY| Slab                   208256        208256        208256        208256
 MEMORY| SReclaimable           143664        143664        143664        143664
 MEMORY| MemLikelyFree        11175160      11175160      11175160      11175160



                      ************* ******** ***********   
                     ************* **********************  
                     ****     **** ****      ***********   
                     ******** ****  *******     ****       
                     *******  ****   *******   ****        
                     ****     ****       ****  ****        
                     ****     **** **********  ****        
                      ****     **** ********    ****       
                     FRONTIERS IN SIMULATION TECHNOLOGY    
                                                           
                        C.J. Mundy, S. Balasubramanian,    
                     Ken Bagchi, J. Hutter, Ari Seitsonen  
                      IFW Kuo, T. Laino, J. VandeVondele   
                                 Version 1.0               

                                                           


 *** WARNING in cell_methods.F:140 :: Cell Information provided through    ***
 *** vectors A, B and C in conjunction with ABC. The definition of the ABC ***
 *** keyword will override the one provided by A,B and C.                  ***


 EWALD| Summation is done by:                                               SPME
 EWALD| Alpha parameter [       ANGSTROM^-1]                              0.5000
 EWALD| Real Space Cutoff [          ANGSTROM]                            6.7478
 EWALD| G-space max. Miller index                         40        40        40
 EWALD| Spline interpolation order                                             6

 *** WARNING in cell_methods.F:140 :: Cell Information provided through    ***
 *** vectors A, B and C in conjunction with ABC. The definition of the ABC ***
 *** keyword will override the one provided by A,B and C.                  ***

 WARNING| Particles:       5      4 at distance [au]:     0.00000000 less than:      0.01889726; increase EMAX_SPLINE.

 *******************************************************************************
 *   ___                                                                       *
 *  /   \                                                                      *
 * [ABORT]                                                                     *
 *  \___/                GEOMETRY wrong or EMAX_SPLINE too small!              *
 *    |                                                                        *
 *  O/|                                                                        *
 * /| |                                                                        *
 * / \                                               fist_neighbor_lists.F:607 *
 *******************************************************************************


 ===== Routine Calling Stack ===== 

            9 build_neighbor_lists
            8 build_fist_neighbor_lists
            7 topology_generate_bond_3
            6 topology_generate_bond
            5 connectivity_control
            4 topology_control
            3 fist_init
            2 fist_create_force_env
            1 CP2K

  **** **** ******  **  PROGRAM STARTED AT               2024-11-06 09:01:47.429
 ***** ** ***  *** **   PROGRAM STARTED ON                       BOOK-4GL9QDET17
 **    ****   ******    PROGRAM STARTED BY                                 mattw
 ***** **    ** ** **   PROGRAM PROCESS ID                                  8835
  **** **  *******  **  PROGRAM STARTED IN             /home/mattw/work/NEB/NaCl

 CP2K| version string:                                          CP2K version 9.1
 CP2K| source code revision number:                                  git:d8d7100
 CP2K| cp2kflags: omp libint fftw3 libxc elpa parallel mpi3 scalapack spglib    
 CP2K| is freely available from                            https://www.cp2k.org/
 CP2K| Program compiled at                          Sun Jan  9 17:14:22 UTC 2022
 CP2K| Program compiled on                                       lcy02-amd64-025
 CP2K| Program compiled for                                Linux-x86_64-gfortran
 CP2K| Data directory path                                       /usr/share/cp2k
 CP2K| Input file name                                                  NaCl.inp

 GLOBAL| Force Environment number                                              1
 GLOBAL| Basis set file name                                           BASIS_SET
 GLOBAL| Potential file name                                           POTENTIAL
 GLOBAL| MM Potential file name                                     MM_POTENTIAL
 GLOBAL| Coordinate file name                                      __STD_INPUT__
 GLOBAL| Method name                                                        CP2K
 GLOBAL| Project name                                                       NaCl
 GLOBAL| Run type                                                   ENERGY_FORCE
 GLOBAL| FFT library                                                       FFTW3
 GLOBAL| Diagonalization library                                            ELPA
 GLOBAL| Minimum number of eigenvectors for ELPA usage                        16
 GLOBAL| Orthonormality check for eigenvectors                          DISABLED
 GLOBAL| Matrix multiplication library                                 ScaLAPACK
 GLOBAL| All-to-all communication in single precision                          F
 GLOBAL| FFTs using library dependent lengths                                  F
 GLOBAL| Grid backend                                                       AUTO
 GLOBAL| Global print level                                                  LOW
 GLOBAL| MPI I/O enabled                                                       T
 GLOBAL| Total number of message passing processes                             1
 GLOBAL| Number of threads for this process                                   16
 GLOBAL| This output is from process                                           0
 GLOBAL| Stack size for threads created by OpenMP (OMP_STACKSIZE)        default
 GLOBAL| CPU model name                      12th Gen Intel(R) Core(TM) i7-1260P

 MEMORY| system memory details [Kb]
 MEMORY|                        rank 0           min           max       average
 MEMORY| MemTotal             12251484      12251484      12251484      12251484
 MEMORY| MemFree              10701156      10701156      10701156      10701156
 MEMORY| Buffers                 40140         40140         40140         40140
 MEMORY| Cached                 297732        297732        297732        297732
 MEMORY| Slab                   208300        208300        208300        208300
 MEMORY| SReclaimable           143724        143724        143724        143724
 MEMORY| MemLikelyFree        11182752      11182752      11182752      11182752



                      ************* ******** ***********   
                     ************* **********************  
                     ****     **** ****      ***********   
                     ******** ****  *******     ****       
                     *******  ****   *******   ****        
                     ****     ****       ****  ****        
                     ****     **** **********  ****        
                      ****     **** ********    ****       
                     FRONTIERS IN SIMULATION TECHNOLOGY    
                                                           
                        C.J. Mundy, S. Balasubramanian,    
                     Ken Bagchi, J. Hutter, Ari Seitsonen  
                      IFW Kuo, T. Laino, J. VandeVondele   
                                 Version 1.0               

                                                           


 *** WARNING in cell_methods.F:140 :: Cell Information provided through    ***
 *** vectors A, B and C in conjunction with ABC. The definition of the ABC ***
 *** keyword will override the one provided by A,B and C.                  ***


 EWALD| Summation is done by:                                               SPME
 EWALD| Alpha parameter [       ANGSTROM^-1]                              0.5000
 EWALD| Real Space Cutoff [          ANGSTROM]                            6.7478
 EWALD| G-space max. Miller index                         40        40        40
 EWALD| Spline interpolation order                                             6

 *** WARNING in cell_methods.F:140 :: Cell Information provided through    ***
 *** vectors A, B and C in conjunction with ABC. The definition of the ABC ***
 *** keyword will override the one provided by A,B and C.                  ***


 GENERATE|  Preliminary Number of Bonds generated:                             0
 GENERATE|  Achieved consistency in connectivity generation.
 CHARGE_INFO| Total Charge of the Classical System:                     0.000000

 FORCEFIELD| WARNING: A non Critical ForceField parameter is missing! CP2K GOES!
 FORCEFIELD| Non critical parameters are:Urey-Bradley,Torsions,Impropers, Opbends and 1-4
 FORCEFIELD| All missing parameters will not contribute to the potential energy!
 FORCEFIELD| Activate the print key FF_INFO to have a list of missing parameters


 SPLINE_INFO| Generating 3 splines for NONBONDED14 interactions 
              Due to 2 different atomic kinds
  ...1  ...2  ...3
 SPLINE_INFO| Number of unique splines computed:            1
 SPLINE_INFO| Done

 SPLINE_INFO| Generating 3 splines for NONBONDED interactions 
              Due to 2 different atomic kinds
  ...1  ...2  ...3
 SPLINE_INFO| Number of unique splines computed:            3
 SPLINE_INFO| Done

 ENERGY| Total FORCE_EVAL ( FIST ) energy [a.u.]:            -75.751997555078205

 -------------------------------------------------------------------------------
 -                                                                             -
 -                         MESSAGE PASSING PERFORMANCE                         -
 -                                                                             -
 -------------------------------------------------------------------------------

 ROUTINE             CALLS      AVE VOLUME [Bytes]
 MP_Group                1
 MP_Allreduce           29                    855.
 MP_Sync                 1
 -------------------------------------------------------------------------------


 -------------------------------------------------------------------------------
 -                                                                             -
 -                           R E F E R E N C E S                               -
 -                                                                             -
 -------------------------------------------------------------------------------
 
 CP2K version 9.1, the CP2K developers group (2021).
 CP2K is freely available from https://www.cp2k.org/ .

 Marek, A; Blum, V; Johanni, R; Havu, V; Lang, B; Auckenthaler, T;
 Heinecke, A; Bungartz, H; Lederer, H. 
 Journal of Physics: Condensed Matter, 26 (21), (2014). 
 The ELPA library: scalable parallel eigenvalue solutions for
 electronic structure
 theory and computational science.
 https://doi.org/10.1088/0953-8984/26/21/213201

 Frigo, M; Johnson, SG. 
 PROCEEDINGS OF THE IEEE, 93 (2), 216-231 (2005). 
 The design and implementation of FFTW3.
 https://doi.org/10.1109/JPROC.2004.840301

 ESSMANN, U; PERERA, L; BERKOWITZ, ML; DARDEN, T; LEE, H; PEDERSEN, LG. 
 JOURNAL OF CHEMICAL PHYSICS, 103 (19), 8577-8593 (1995). 
 A SMOOTH PARTICLE MESH EWALD METHOD.
 https://doi.org/10.1063/1.470117

 FUMI, FG; TOSI, MP. 
 JOURNAL OF PHYSICS AND CHEMISTRY OF SOLIDS, 25 (1), 31-43 (1964). 
 IONIC SIZES + BORN REPULSIVE PARAMETERS IN NACL-TYPE ALKALI HALIDES .I.
 HUGGINS-MAYER + PAULING FORMS.
 https://doi.org/10.1016/0022-3697(64)90159-3

 TOSI, MP; FUMI, FG. 
 JOURNAL OF PHYSICS AND CHEMISTRY OF SOLIDS, 25 (1), 45-52 (1964). 
 IONIC SIZES + BORN REPULSIVE PARAMETERS IN NACL-TYPE ALKALI HALIDES .2.
 GENERALIZED.
 https://doi.org/10.1016/0022-3697(64)90160-X


 -------------------------------------------------------------------------------
 -                                                                             -
 -                                T I M I N G                                  -
 -                                                                             -
 -------------------------------------------------------------------------------
 SUBROUTINE                       CALLS  ASD         SELF TIME        TOTAL TIME
                                MAXIMUM       AVERAGE  MAXIMUM  AVERAGE  MAXIMUM
 CP2K                                 1  1.0    0.015    0.015    0.084    0.084
 fist_calc_energy_force               1  2.0    0.000    0.000    0.027    0.027
 fist_create_force_env                1  2.0    0.000    0.000    0.023    0.023
 fist_init                            1  3.0    0.000    0.000    0.022    0.022
 force_nonbond                        1  3.0    0.016    0.016    0.016    0.016
 fist_init_subsys                     1  4.0    0.000    0.000    0.015    0.015
 fft3d_s                              5  6.0    0.001    0.001    0.014    0.014
 write_particle_distances             1  5.0    0.014    0.014    0.014    0.014
 get_fft_scratch                      5  7.0    0.013    0.013    0.013    0.013
 build_fist_neighbor_lists            2  6.0    0.000    0.000    0.007    0.007
 list_control                         1  3.0    0.000    0.000    0.006    0.006
 build_neighbor_lists                 2  7.0    0.006    0.006    0.006    0.006
 read_input                           1  2.0    0.003    0.003    0.006    0.006
 topology_control                     1  4.0    0.000    0.000    0.006    0.006
 spme_evaluate                        1  3.0    0.001    0.001    0.005    0.005
 section_vals_parse                  26  6.1    0.001    0.001    0.003    0.003
 pw_transfer                          9  4.6    0.000    0.000    0.003    0.003
 fft_wrap_pw1pw2                      4  5.0    0.000    0.000    0.003    0.003
 fft_wrap_pw1pw2_10                   4  6.0    0.000    0.000    0.003    0.003
 coordinate_control                   1  5.0    0.000    0.000    0.003    0.003
 coordinate_control_READ_COORDI       1  6.0    0.000    0.000    0.003    0.003
 read_atoms_input                     1  7.0    0.003    0.003    0.003    0.003
 connectivity_control                 1  5.0    0.000    0.000    0.002    0.002
 val_create_parsing                 549  7.0    0.002    0.002    0.002    0.002
 topology_generate_bond               1  6.0    0.000    0.000    0.002    0.002
 -------------------------------------------------------------------------------

 The number of warnings for this run is : 2
 
 -------------------------------------------------------------------------------
  **** **** ******  **  PROGRAM ENDED AT                 2024-11-06 09:01:47.906
 ***** ** ***  *** **   PROGRAM RAN ON                           BOOK-4GL9QDET17
 **    ****   ******    PROGRAM RAN BY                                     mattw
 ***** **    ** ** **   PROGRAM PROCESS ID                                  8835
  **** **  *******  **  PROGRAM STOPPED IN             /home/mattw/work/NEB/NaCl

  **** **** ******  **  PROGRAM STARTED AT               2024-11-06 09:01:47.906
 ***** ** ***  *** **   PROGRAM STARTED ON                       BOOK-4GL9QDET17
 **    ****   ******    PROGRAM STARTED BY                                 mattw
 ***** **    ** ** **   PROGRAM PROCESS ID                                  8835
  **** **  *******  **  PROGRAM STARTED IN             /home/mattw/work/NEB/NaCl

 CP2K| version string:                                          CP2K version 9.1
 CP2K| source code revision number:                                  git:d8d7100
 CP2K| cp2kflags: omp libint fftw3 libxc elpa parallel mpi3 scalapack spglib    
 CP2K| is freely available from                            https://www.cp2k.org/
 CP2K| Program compiled at                          Sun Jan  9 17:14:22 UTC 2022
 CP2K| Program compiled on                                       lcy02-amd64-025
 CP2K| Program compiled for                                Linux-x86_64-gfortran
 CP2K| Data directory path                                       /usr/share/cp2k
 CP2K| Input file name                                                  NaCl.inp

 GLOBAL| Force Environment number                                              1
 GLOBAL| Basis set file name                                           BASIS_SET
 GLOBAL| Potential file name                                           POTENTIAL
 GLOBAL| MM Potential file name                                     MM_POTENTIAL
 GLOBAL| Coordinate file name                                      __STD_INPUT__
 GLOBAL| Method name                                                        CP2K
 GLOBAL| Project name                                                       NaCl
 GLOBAL| Run type                                                   ENERGY_FORCE
 GLOBAL| FFT library                                                       FFTW3
 GLOBAL| Diagonalization library                                            ELPA
 GLOBAL| Minimum number of eigenvectors for ELPA usage                        16
 GLOBAL| Orthonormality check for eigenvectors                          DISABLED
 GLOBAL| Matrix multiplication library                                 ScaLAPACK
 GLOBAL| All-to-all communication in single precision                          F
 GLOBAL| FFTs using library dependent lengths                                  F
 GLOBAL| Grid backend                                                       AUTO
 GLOBAL| Global print level                                                  LOW
 GLOBAL| MPI I/O enabled                                                       T
 GLOBAL| Total number of message passing processes                             1
 GLOBAL| Number of threads for this process                                   16
 GLOBAL| This output is from process                                           0
 GLOBAL| Stack size for threads created by OpenMP (OMP_STACKSIZE)        default
 GLOBAL| CPU model name                      12th Gen Intel(R) Core(TM) i7-1260P

 MEMORY| system memory details [Kb]
 MEMORY|                        rank 0           min           max       average
 MEMORY| MemTotal             12251484      12251484      12251484      12251484
 MEMORY| MemFree              10701028      10701028      10701028      10701028
 MEMORY| Buffers                 40140         40140         40140         40140
 MEMORY| Cached                 297732        297732        297732        297732
 MEMORY| Slab                   208300        208300        208300        208300
 MEMORY| SReclaimable           143724        143724        143724        143724
 MEMORY| MemLikelyFree        11182624      11182624      11182624      11182624



                      ************* ******** ***********   
                     ************* **********************  
                     ****     **** ****      ***********   
                     ******** ****  *******     ****       
                     *******  ****   *******   ****        
                     ****     ****       ****  ****        
                     ****     **** **********  ****        
                      ****     **** ********    ****       
                     FRONTIERS IN SIMULATION TECHNOLOGY    
                                                           
                        C.J. Mundy, S. Balasubramanian,    
                     Ken Bagchi, J. Hutter, Ari Seitsonen  
                      IFW Kuo, T. Laino, J. VandeVondele   
                                 Version 1.0               

                                                           


 *** WARNING in cell_methods.F:140 :: Cell Information provided through    ***
 *** vectors A, B and C in conjunction with ABC. The definition of the ABC ***
 *** keyword will override the one provided by A,B and C.                  ***


 EWALD| Summation is done by:                                               SPME
 EWALD| Alpha parameter [       ANGSTROM^-1]                              0.5000
 EWALD| Real Space Cutoff [          ANGSTROM]                            6.7478
 EWALD| G-space max. Miller index                         40        40        40
 EWALD| Spline interpolation order                                             6

 *** WARNING in cell_methods.F:140 :: Cell Information provided through    ***
 *** vectors A, B and C in conjunction with ABC. The definition of the ABC ***
 *** keyword will override the one provided by A,B and C.                  ***


 GENERATE|  Preliminary Number of Bonds generated:                             0
 GENERATE|  Achieved consistency in connectivity generation.
 CHARGE_INFO| Total Charge of the Classical System:                     1.000000

 FORCEFIELD| WARNING: A non Critical ForceField parameter is missing! CP2K GOES!
 FORCEFIELD| Non critical parameters are:Urey-Bradley,Torsions,Impropers, Opbends and 1-4
 FORCEFIELD| All missing parameters will not contribute to the potential energy!
 FORCEFIELD| Activate the print key FF_INFO to have a list of missing parameters


 SPLINE_INFO| Generating 3 splines for NONBONDED14 interactions 
              Due to 2 different atomic kinds
  ...1  ...2  ...3
 SPLINE_INFO| Number of unique splines computed:            1
 SPLINE_INFO| Done

 SPLINE_INFO| Generating 3 splines for NONBONDED interactions 
              Due to 2 different atomic kinds
  ...1  ...2  ...3
 SPLINE_INFO| Number of unique splines computed:            3
 SPLINE_INFO| Done

 ENERGY| Total FORCE_EVAL ( FIST ) energy [a.u.]:            -75.486806593289856
 WARNING| Particles:       4      3 at distance [au]:     0.00000000 less than:      2.80638612; increase EMAX_SPLINE.

 *******************************************************************************
 *   ___                                                                       *
 *  /   \                                                                      *
 * [ABORT]                                                                     *
 *  \___/                GEOMETRY wrong or EMAX_SPLINE too small!              *
 *    |                                                                        *
 *  O/|                                                                        *
 * /| |                                                                        *
 * / \                                               fist_neighbor_lists.F:607 *
 *******************************************************************************


 ===== Routine Calling Stack ===== 

            5 build_neighbor_lists
            4 build_fist_neighbor_lists
            3 list_control
            2 fist_calc_energy_force
            1 CP2K

  **** **** ******  **  PROGRAM STARTED AT               2024-11-06 09:02:17.367
 ***** ** ***  *** **   PROGRAM STARTED ON                       BOOK-4GL9QDET17
 **    ****   ******    PROGRAM STARTED BY                                 mattw
 ***** **    ** ** **   PROGRAM PROCESS ID                                  8913
  **** **  *******  **  PROGRAM STARTED IN             /home/mattw/work/NEB/NaCl

 CP2K| version string:                                          CP2K version 9.1
 CP2K| source code revision number:                                  git:d8d7100
 CP2K| cp2kflags: omp libint fftw3 libxc elpa parallel mpi3 scalapack spglib    
 CP2K| is freely available from                            https://www.cp2k.org/
 CP2K| Program compiled at                          Sun Jan  9 17:14:22 UTC 2022
 CP2K| Program compiled on                                       lcy02-amd64-025
 CP2K| Program compiled for                                Linux-x86_64-gfortran
 CP2K| Data directory path                                       /usr/share/cp2k
 CP2K| Input file name                                                  NaCl.inp

 GLOBAL| Force Environment number                                              1
 GLOBAL| Basis set file name                                           BASIS_SET
 GLOBAL| Potential file name                                           POTENTIAL
 GLOBAL| MM Potential file name                                     MM_POTENTIAL
 GLOBAL| Coordinate file name                                      __STD_INPUT__
 GLOBAL| Method name                                                        CP2K
 GLOBAL| Project name                                                       NaCl
 GLOBAL| Run type                                                   ENERGY_FORCE
 GLOBAL| FFT library                                                       FFTW3
 GLOBAL| Diagonalization library                                            ELPA
 GLOBAL| Minimum number of eigenvectors for ELPA usage                        16
 GLOBAL| Orthonormality check for eigenvectors                          DISABLED
 GLOBAL| Matrix multiplication library                                 ScaLAPACK
 GLOBAL| All-to-all communication in single precision                          F
 GLOBAL| FFTs using library dependent lengths                                  F
 GLOBAL| Grid backend                                                       AUTO
 GLOBAL| Global print level                                                  LOW
 GLOBAL| MPI I/O enabled                                                       T
 GLOBAL| Total number of message passing processes                             1
 GLOBAL| Number of threads for this process                                   16
 GLOBAL| This output is from process                                           0
 GLOBAL| Stack size for threads created by OpenMP (OMP_STACKSIZE)        default
 GLOBAL| CPU model name                      12th Gen Intel(R) Core(TM) i7-1260P

 MEMORY| system memory details [Kb]
 MEMORY|                        rank 0           min           max       average
 MEMORY| MemTotal             12251484      12251484      12251484      12251484
 MEMORY| MemFree              10695904      10695904      10695904      10695904
 MEMORY| Buffers                 40196         40196         40196         40196
 MEMORY| Cached                 297448        297448        297448        297448
 MEMORY| Slab                   208056        208056        208056        208056
 MEMORY| SReclaimable           143520        143520        143520        143520
 MEMORY| MemLikelyFree        11177068      11177068      11177068      11177068



                      ************* ******** ***********   
                     ************* **********************  
                     ****     **** ****      ***********   
                     ******** ****  *******     ****       
                     *******  ****   *******   ****        
                     ****     ****       ****  ****        
                     ****     **** **********  ****        
                      ****     **** ********    ****       
                     FRONTIERS IN SIMULATION TECHNOLOGY    
                                                           
                        C.J. Mundy, S. Balasubramanian,    
                     Ken Bagchi, J. Hutter, Ari Seitsonen  
                      IFW Kuo, T. Laino, J. VandeVondele   
                                 Version 1.0               

                                                           


 *** WARNING in cell_methods.F:140 :: Cell Information provided through    ***
 *** vectors A, B and C in conjunction with ABC. The definition of the ABC ***
 *** keyword will override the one provided by A,B and C.                  ***


 EWALD| Summation is done by:                                               SPME
 EWALD| Alpha parameter [       ANGSTROM^-1]                              0.5000
 EWALD| Real Space Cutoff [          ANGSTROM]                            6.7478
 EWALD| G-space max. Miller index                         40        40        40
 EWALD| Spline interpolation order                                             6

 *** WARNING in cell_methods.F:140 :: Cell Information provided through    ***
 *** vectors A, B and C in conjunction with ABC. The definition of the ABC ***
 *** keyword will override the one provided by A,B and C.                  ***

 WARNING| Particles:       5      4 at distance [au]:     0.00000000 less than:      0.01889726; increase EMAX_SPLINE.

 *******************************************************************************
 *   ___                                                                       *
 *  /   \                                                                      *
 * [ABORT]                                                                     *
 *  \___/                GEOMETRY wrong or EMAX_SPLINE too small!              *
 *    |                                                                        *
 *  O/|                                                                        *
 * /| |                                                                        *
 * / \                                               fist_neighbor_lists.F:607 *
 *******************************************************************************


 ===== Routine Calling Stack ===== 

            9 build_neighbor_lists
            8 build_fist_neighbor_lists
            7 topology_generate_bond_3
            6 topology_generate_bond
            5 connectivity_control
            4 topology_control
            3 fist_init
            2 fist_create_force_env
            1 CP2K

  **** **** ******  **  PROGRAM STARTED AT               2024-11-06 09:02:31.298
 ***** ** ***  *** **   PROGRAM STARTED ON                       BOOK-4GL9QDET17
 **    ****   ******    PROGRAM STARTED BY                                 mattw
 ***** **    ** ** **   PROGRAM PROCESS ID                                  8969
  **** **  *******  **  PROGRAM STARTED IN             /home/mattw/work/NEB/NaCl

 CP2K| version string:                                          CP2K version 9.1
 CP2K| source code revision number:                                  git:d8d7100
 CP2K| cp2kflags: omp libint fftw3 libxc elpa parallel mpi3 scalapack spglib    
 CP2K| is freely available from                            https://www.cp2k.org/
 CP2K| Program compiled at                          Sun Jan  9 17:14:22 UTC 2022
 CP2K| Program compiled on                                       lcy02-amd64-025
 CP2K| Program compiled for                                Linux-x86_64-gfortran
 CP2K| Data directory path                                       /usr/share/cp2k
 CP2K| Input file name                                                  NaCl.inp

 GLOBAL| Force Environment number                                              1
 GLOBAL| Basis set file name                                           BASIS_SET
 GLOBAL| Potential file name                                           POTENTIAL
 GLOBAL| MM Potential file name                                     MM_POTENTIAL
 GLOBAL| Coordinate file name                                      __STD_INPUT__
 GLOBAL| Method name                                                        CP2K
 GLOBAL| Project name                                                       NaCl
 GLOBAL| Run type                                                   ENERGY_FORCE
 GLOBAL| FFT library                                                       FFTW3
 GLOBAL| Diagonalization library                                            ELPA
 GLOBAL| Minimum number of eigenvectors for ELPA usage                        16
 GLOBAL| Orthonormality check for eigenvectors                          DISABLED
 GLOBAL| Matrix multiplication library                                 ScaLAPACK
 GLOBAL| All-to-all communication in single precision                          F
 GLOBAL| FFTs using library dependent lengths                                  F
 GLOBAL| Grid backend                                                       AUTO
 GLOBAL| Global print level                                                  LOW
 GLOBAL| MPI I/O enabled                                                       T
 GLOBAL| Total number of message passing processes                             1
 GLOBAL| Number of threads for this process                                   16
 GLOBAL| This output is from process                                           0
 GLOBAL| Stack size for threads created by OpenMP (OMP_STACKSIZE)        default
 GLOBAL| CPU model name                      12th Gen Intel(R) Core(TM) i7-1260P

 MEMORY| system memory details [Kb]
 MEMORY|                        rank 0           min           max       average
 MEMORY| MemTotal             12251484      12251484      12251484      12251484
 MEMORY| MemFree              10698760      10698760      10698760      10698760
 MEMORY| Buffers                 40268         40268         40268         40268
 MEMORY| Cached                 297732        297732        297732        297732
 MEMORY| Slab                   208256        208256        208256        208256
 MEMORY| SReclaimable           143728        143728        143728        143728
 MEMORY| MemLikelyFree        11180488      11180488      11180488      11180488



                      ************* ******** ***********   
                     ************* **********************  
                     ****     **** ****      ***********   
                     ******** ****  *******     ****       
                     *******  ****   *******   ****        
                     ****     ****       ****  ****        
                     ****     **** **********  ****        
                      ****     **** ********    ****       
                     FRONTIERS IN SIMULATION TECHNOLOGY    
                                                           
                        C.J. Mundy, S. Balasubramanian,    
                     Ken Bagchi, J. Hutter, Ari Seitsonen  
                      IFW Kuo, T. Laino, J. VandeVondele   
                                 Version 1.0               

                                                           


 *** WARNING in cell_methods.F:140 :: Cell Information provided through    ***
 *** vectors A, B and C in conjunction with ABC. The definition of the ABC ***
 *** keyword will override the one provided by A,B and C.                  ***


 EWALD| Summation is done by:                                               SPME
 EWALD| Alpha parameter [       ANGSTROM^-1]                              0.5000
 EWALD| Real Space Cutoff [          ANGSTROM]                            6.7478
 EWALD| G-space max. Miller index                         40        40        40
 EWALD| Spline interpolation order                                             6

 *** WARNING in cell_methods.F:140 :: Cell Information provided through    ***
 *** vectors A, B and C in conjunction with ABC. The definition of the ABC ***
 *** keyword will override the one provided by A,B and C.                  ***


 GENERATE|  Preliminary Number of Bonds generated:                             0
 GENERATE|  Achieved consistency in connectivity generation.
 CHARGE_INFO| Total Charge of the Classical System:                     0.000000

 FORCEFIELD| WARNING: A non Critical ForceField parameter is missing! CP2K GOES!
 FORCEFIELD| Non critical parameters are:Urey-Bradley,Torsions,Impropers, Opbends and 1-4
 FORCEFIELD| All missing parameters will not contribute to the potential energy!
 FORCEFIELD| Activate the print key FF_INFO to have a list of missing parameters


 SPLINE_INFO| Generating 3 splines for NONBONDED14 interactions 
              Due to 2 different atomic kinds
  ...1  ...2  ...3
 SPLINE_INFO| Number of unique splines computed:            1
 SPLINE_INFO| Done

 SPLINE_INFO| Generating 3 splines for NONBONDED interactions 
              Due to 2 different atomic kinds
  ...1  ...2  ...3
 SPLINE_INFO| Number of unique splines computed:            3
 SPLINE_INFO| Done

 ENERGY| Total FORCE_EVAL ( FIST ) energy [a.u.]:            -75.751997555078148

 -------------------------------------------------------------------------------
 -                                                                             -
 -                         MESSAGE PASSING PERFORMANCE                         -
 -                                                                             -
 -------------------------------------------------------------------------------

 ROUTINE             CALLS      AVE VOLUME [Bytes]
 MP_Group                1
 MP_Allreduce           29                    855.
 MP_Sync                 1
 -------------------------------------------------------------------------------


 -------------------------------------------------------------------------------
 -                                                                             -
 -                           R E F E R E N C E S                               -
 -                                                                             -
 -------------------------------------------------------------------------------
 
 CP2K version 9.1, the CP2K developers group (2021).
 CP2K is freely available from https://www.cp2k.org/ .

 Marek, A; Blum, V; Johanni, R; Havu, V; Lang, B; Auckenthaler, T;
 Heinecke, A; Bungartz, H; Lederer, H. 
 Journal of Physics: Condensed Matter, 26 (21), (2014). 
 The ELPA library: scalable parallel eigenvalue solutions for
 electronic structure
 theory and computational science.
 https://doi.org/10.1088/0953-8984/26/21/213201

 Frigo, M; Johnson, SG. 
 PROCEEDINGS OF THE IEEE, 93 (2), 216-231 (2005). 
 The design and implementation of FFTW3.
 https://doi.org/10.1109/JPROC.2004.840301

 ESSMANN, U; PERERA, L; BERKOWITZ, ML; DARDEN, T; LEE, H; PEDERSEN, LG. 
 JOURNAL OF CHEMICAL PHYSICS, 103 (19), 8577-8593 (1995). 
 A SMOOTH PARTICLE MESH EWALD METHOD.
 https://doi.org/10.1063/1.470117

 FUMI, FG; TOSI, MP. 
 JOURNAL OF PHYSICS AND CHEMISTRY OF SOLIDS, 25 (1), 31-43 (1964). 
 IONIC SIZES + BORN REPULSIVE PARAMETERS IN NACL-TYPE ALKALI HALIDES .I.
 HUGGINS-MAYER + PAULING FORMS.
 https://doi.org/10.1016/0022-3697(64)90159-3

 TOSI, MP; FUMI, FG. 
 JOURNAL OF PHYSICS AND CHEMISTRY OF SOLIDS, 25 (1), 45-52 (1964). 
 IONIC SIZES + BORN REPULSIVE PARAMETERS IN NACL-TYPE ALKALI HALIDES .2.
 GENERALIZED.
 https://doi.org/10.1016/0022-3697(64)90160-X


 -------------------------------------------------------------------------------
 -                                                                             -
 -                                T I M I N G                                  -
 -                                                                             -
 -------------------------------------------------------------------------------
 SUBROUTINE                       CALLS  ASD         SELF TIME        TOTAL TIME
                                MAXIMUM       AVERAGE  MAXIMUM  AVERAGE  MAXIMUM
 CP2K                                 1  1.0    0.016    0.016    0.077    0.077
 fist_calc_energy_force               1  2.0    0.000    0.000    0.029    0.029
 fist_create_force_env                1  2.0    0.000    0.000    0.026    0.026
 fist_init                            1  3.0    0.000    0.000    0.026    0.026
 force_nonbond                        1  3.0    0.017    0.017    0.017    0.017
 topology_control                     1  4.0    0.000    0.000    0.014    0.014
 fist_init_subsys                     1  4.0    0.000    0.000    0.011    0.011
 coordinate_control                   1  5.0    0.000    0.000    0.009    0.009
 coordinate_control_READ_COORDI       1  6.0    0.000    0.000    0.009    0.009
 read_atoms_input                     1  7.0    0.009    0.009    0.009    0.009
 write_particle_distances             1  5.0    0.009    0.009    0.009    0.009
 build_fist_neighbor_lists            2  6.0    0.000    0.000    0.007    0.007
 build_neighbor_lists                 2  7.0    0.006    0.006    0.006    0.006
 spme_evaluate                        1  3.0    0.001    0.001    0.006    0.006
 list_control                         1  3.0    0.000    0.000    0.006    0.006
 read_input                           1  2.0    0.002    0.002    0.005    0.005
 pw_transfer                          9  4.6    0.000    0.000    0.004    0.004
 fft_wrap_pw1pw2                      4  5.0    0.000    0.000    0.004    0.004
 fft_wrap_pw1pw2_10                   4  6.0    0.000    0.000    0.003    0.003
 section_vals_parse                  26  6.1    0.001    0.001    0.003    0.003
 connectivity_control                 1  5.0    0.000    0.000    0.003    0.003
 topology_generate_bond               1  6.0    0.000    0.000    0.003    0.003
 fft3d_s                              5  6.0    0.001    0.001    0.002    0.002
 val_create_parsing                 549  7.0    0.002    0.002    0.002    0.002
 ewald_pw_init                        1  5.0    0.000    0.000    0.002    0.002
 topology_generate_bond_3             1  7.0    0.000    0.000    0.002    0.002
 pw_grid_setup                        1  6.0    0.000    0.000    0.002    0.002
 pw_grid_setup_internal               1  7.0    0.000    0.000    0.002    0.002
 -------------------------------------------------------------------------------

 The number of warnings for this run is : 2
 
 -------------------------------------------------------------------------------
  **** **** ******  **  PROGRAM ENDED AT                 2024-11-06 09:02:31.783
 ***** ** ***  *** **   PROGRAM RAN ON                           BOOK-4GL9QDET17
 **    ****   ******    PROGRAM RAN BY                                     mattw
 ***** **    ** ** **   PROGRAM PROCESS ID                                  8969
  **** **  *******  **  PROGRAM STOPPED IN             /home/mattw/work/NEB/NaCl

  **** **** ******  **  PROGRAM STARTED AT               2024-11-06 09:02:31.783
 ***** ** ***  *** **   PROGRAM STARTED ON                       BOOK-4GL9QDET17
 **    ****   ******    PROGRAM STARTED BY                                 mattw
 ***** **    ** ** **   PROGRAM PROCESS ID                                  8969
  **** **  *******  **  PROGRAM STARTED IN             /home/mattw/work/NEB/NaCl

 CP2K| version string:                                          CP2K version 9.1
 CP2K| source code revision number:                                  git:d8d7100
 CP2K| cp2kflags: omp libint fftw3 libxc elpa parallel mpi3 scalapack spglib    
 CP2K| is freely available from                            https://www.cp2k.org/
 CP2K| Program compiled at                          Sun Jan  9 17:14:22 UTC 2022
 CP2K| Program compiled on                                       lcy02-amd64-025
 CP2K| Program compiled for                                Linux-x86_64-gfortran
 CP2K| Data directory path                                       /usr/share/cp2k
 CP2K| Input file name                                                  NaCl.inp

 GLOBAL| Force Environment number                                              1
 GLOBAL| Basis set file name                                           BASIS_SET
 GLOBAL| Potential file name                                           POTENTIAL
 GLOBAL| MM Potential file name                                     MM_POTENTIAL
 GLOBAL| Coordinate file name                                      __STD_INPUT__
 GLOBAL| Method name                                                        CP2K
 GLOBAL| Project name                                                       NaCl
 GLOBAL| Run type                                                   ENERGY_FORCE
 GLOBAL| FFT library                                                       FFTW3
 GLOBAL| Diagonalization library                                            ELPA
 GLOBAL| Minimum number of eigenvectors for ELPA usage                        16
 GLOBAL| Orthonormality check for eigenvectors                          DISABLED
 GLOBAL| Matrix multiplication library                                 ScaLAPACK
 GLOBAL| All-to-all communication in single precision                          F
 GLOBAL| FFTs using library dependent lengths                                  F
 GLOBAL| Grid backend                                                       AUTO
 GLOBAL| Global print level                                                  LOW
 GLOBAL| MPI I/O enabled                                                       T
 GLOBAL| Total number of message passing processes                             1
 GLOBAL| Number of threads for this process                                   16
 GLOBAL| This output is from process                                           0
 GLOBAL| Stack size for threads created by OpenMP (OMP_STACKSIZE)        default
 GLOBAL| CPU model name                      12th Gen Intel(R) Core(TM) i7-1260P

 MEMORY| system memory details [Kb]
 MEMORY|                        rank 0           min           max       average
 MEMORY| MemTotal             12251484      12251484      12251484      12251484
 MEMORY| MemFree              10699640      10699640      10699640      10699640
 MEMORY| Buffers                 40268         40268         40268         40268
 MEMORY| Cached                 297784        297784        297784        297784
 MEMORY| Slab                   208336        208336        208336        208336
 MEMORY| SReclaimable           143744        143744        143744        143744
 MEMORY| MemLikelyFree        11181436      11181436      11181436      11181436



                      ************* ******** ***********   
                     ************* **********************  
                     ****     **** ****      ***********   
                     ******** ****  *******     ****       
                     *******  ****   *******   ****        
                     ****     ****       ****  ****        
                     ****     **** **********  ****        
                      ****     **** ********    ****       
                     FRONTIERS IN SIMULATION TECHNOLOGY    
                                                           
                        C.J. Mundy, S. Balasubramanian,    
                     Ken Bagchi, J. Hutter, Ari Seitsonen  
                      IFW Kuo, T. Laino, J. VandeVondele   
                                 Version 1.0               

                                                           


 *** WARNING in cell_methods.F:140 :: Cell Information provided through    ***
 *** vectors A, B and C in conjunction with ABC. The definition of the ABC ***
 *** keyword will override the one provided by A,B and C.                  ***


 EWALD| Summation is done by:                                               SPME
 EWALD| Alpha parameter [       ANGSTROM^-1]                              0.5000
 EWALD| Real Space Cutoff [          ANGSTROM]                            6.7478
 EWALD| G-space max. Miller index                         40        40        40
 EWALD| Spline interpolation order                                             6

 *** WARNING in cell_methods.F:140 :: Cell Information provided through    ***
 *** vectors A, B and C in conjunction with ABC. The definition of the ABC ***
 *** keyword will override the one provided by A,B and C.                  ***


 GENERATE|  Preliminary Number of Bonds generated:                             0
 GENERATE|  Achieved consistency in connectivity generation.
 CHARGE_INFO| Total Charge of the Classical System:                     1.000000

 FORCEFIELD| WARNING: A non Critical ForceField parameter is missing! CP2K GOES!
 FORCEFIELD| Non critical parameters are:Urey-Bradley,Torsions,Impropers, Opbends and 1-4
 FORCEFIELD| All missing parameters will not contribute to the potential energy!
 FORCEFIELD| Activate the print key FF_INFO to have a list of missing parameters


 SPLINE_INFO| Generating 3 splines for NONBONDED14 interactions 
              Due to 2 different atomic kinds
  ...1  ...2  ...3
 SPLINE_INFO| Number of unique splines computed:            1
 SPLINE_INFO| Done

 SPLINE_INFO| Generating 3 splines for NONBONDED interactions 
              Due to 2 different atomic kinds
  ...1  ...2  ...3
 SPLINE_INFO| Number of unique splines computed:            3
 SPLINE_INFO| Done

 ENERGY| Total FORCE_EVAL ( FIST ) energy [a.u.]:            -75.486806593289842

 ENERGY| Total FORCE_EVAL ( FIST ) energy [a.u.]:            -75.486806593289870

 -------------------------------------------------------------------------------
 -                                                                             -
 -                         MESSAGE PASSING PERFORMANCE                         -
 -                                                                             -
 -------------------------------------------------------------------------------

 ROUTINE             CALLS      AVE VOLUME [Bytes]
 MP_Group                1
 MP_Allreduce           37                   1333.
 MP_Sync                 1
 -------------------------------------------------------------------------------


 -------------------------------------------------------------------------------
 -                                                                             -
 -                           R E F E R E N C E S                               -
 -                                                                             -
 -------------------------------------------------------------------------------
 
 CP2K version 9.1, the CP2K developers group (2021).
 CP2K is freely available from https://www.cp2k.org/ .

 Marek, A; Blum, V; Johanni, R; Havu, V; Lang, B; Auckenthaler, T;
 Heinecke, A; Bungartz, H; Lederer, H. 
 Journal of Physics: Condensed Matter, 26 (21), (2014). 
 The ELPA library: scalable parallel eigenvalue solutions for
 electronic structure
 theory and computational science.
 https://doi.org/10.1088/0953-8984/26/21/213201

 Frigo, M; Johnson, SG. 
 PROCEEDINGS OF THE IEEE, 93 (2), 216-231 (2005). 
 The design and implementation of FFTW3.
 https://doi.org/10.1109/JPROC.2004.840301

 ESSMANN, U; PERERA, L; BERKOWITZ, ML; DARDEN, T; LEE, H; PEDERSEN, LG. 
 JOURNAL OF CHEMICAL PHYSICS, 103 (19), 8577-8593 (1995). 
 A SMOOTH PARTICLE MESH EWALD METHOD.
 https://doi.org/10.1063/1.470117

 FUMI, FG; TOSI, MP. 
 JOURNAL OF PHYSICS AND CHEMISTRY OF SOLIDS, 25 (1), 31-43 (1964). 
 IONIC SIZES + BORN REPULSIVE PARAMETERS IN NACL-TYPE ALKALI HALIDES .I.
 HUGGINS-MAYER + PAULING FORMS.
 https://doi.org/10.1016/0022-3697(64)90159-3

 TOSI, MP; FUMI, FG. 
 JOURNAL OF PHYSICS AND CHEMISTRY OF SOLIDS, 25 (1), 45-52 (1964). 
 IONIC SIZES + BORN REPULSIVE PARAMETERS IN NACL-TYPE ALKALI HALIDES .2.
 GENERALIZED.
 https://doi.org/10.1016/0022-3697(64)90160-X


 -------------------------------------------------------------------------------
 -                                                                             -
 -                                T I M I N G                                  -
 -                                                                             -
 -------------------------------------------------------------------------------
 SUBROUTINE                       CALLS  ASD         SELF TIME        TOTAL TIME
                                MAXIMUM       AVERAGE  MAXIMUM  AVERAGE  MAXIMUM
 CP2K                                 1  1.0    0.025    0.025    0.132    0.132
 fist_calc_energy_force               2  2.0    0.000    0.000    0.077    0.077
 force_nonbond                        2  3.0    0.051    0.051    0.051    0.051
 fist_create_force_env                1  2.0    0.000    0.000    0.022    0.022
 fist_init                            1  3.0    0.000    0.000    0.022    0.022
 build_fist_neighbor_lists            3  5.3    0.000    0.000    0.016    0.016
 list_control                         2  3.0    0.000    0.000    0.014    0.014
 build_neighbor_lists                 3  6.3    0.013    0.013    0.014    0.014
 fist_init_subsys                     1  4.0    0.000    0.000    0.011    0.011
 spme_evaluate                        2  3.0    0.002    0.002    0.011    0.011
 write_particle_distances             1  5.0    0.010    0.010    0.010    0.010
 topology_control                     1  4.0    0.000    0.000    0.009    0.009
 pw_transfer                         18  4.6    0.000    0.000    0.007    0.007
 fft3d_s                              9  6.4    0.004    0.004    0.007    0.007
 fft_wrap_pw1pw2                      8  5.0    0.000    0.000    0.006    0.006
 fft_wrap_pw1pw2_10                   8  6.0    0.000    0.000    0.006    0.006
 read_input                           1  2.0    0.002    0.002    0.006    0.006
 coordinate_control                   1  5.0    0.000    0.000    0.004    0.004
 coordinate_control_READ_COORDI       1  6.0    0.000    0.000    0.004    0.004
 read_atoms_input                     1  7.0    0.004    0.004    0.004    0.004
 connectivity_control                 1  5.0    0.000    0.000    0.004    0.004
 section_vals_parse                  26  6.1    0.001    0.001    0.004    0.004
 topology_generate_bond               1  6.0    0.000    0.000    0.003    0.003
 sort_neighbor_lists                  3  6.3    0.003    0.003    0.003    0.003
 -------------------------------------------------------------------------------

 The number of warnings for this run is : 4
 
 -------------------------------------------------------------------------------
  **** **** ******  **  PROGRAM ENDED AT                 2024-11-06 09:02:31.940
 ***** ** ***  *** **   PROGRAM RAN ON                           BOOK-4GL9QDET17
 **    ****   ******    PROGRAM RAN BY                                     mattw
 ***** **    ** ** **   PROGRAM PROCESS ID                                  8969
  **** **  *******  **  PROGRAM STOPPED IN             /home/mattw/work/NEB/NaCl

  **** **** ******  **  PROGRAM STARTED AT               2024-11-06 09:07:19.564
 ***** ** ***  *** **   PROGRAM STARTED ON                       BOOK-4GL9QDET17
 **    ****   ******    PROGRAM STARTED BY                                 mattw
 ***** **    ** ** **   PROGRAM PROCESS ID                                 10209
  **** **  *******  **  PROGRAM STARTED IN             /home/mattw/work/NEB/NaCl

 CP2K| version string:                                          CP2K version 9.1
 CP2K| source code revision number:                                  git:d8d7100
 CP2K| cp2kflags: omp libint fftw3 libxc elpa parallel mpi3 scalapack spglib    
 CP2K| is freely available from                            https://www.cp2k.org/
 CP2K| Program compiled at                          Sun Jan  9 17:14:22 UTC 2022
 CP2K| Program compiled on                                       lcy02-amd64-025
 CP2K| Program compiled for                                Linux-x86_64-gfortran
 CP2K| Data directory path                                       /usr/share/cp2k
 CP2K| Input file name                                                  NaCl.inp

 GLOBAL| Force Environment number                                              1
 GLOBAL| Basis set file name                                           BASIS_SET
 GLOBAL| Potential file name                                           POTENTIAL
 GLOBAL| MM Potential file name                                     MM_POTENTIAL
 GLOBAL| Coordinate file name                                      __STD_INPUT__
 GLOBAL| Method name                                                        CP2K
 GLOBAL| Project name                                                       NaCl
 GLOBAL| Run type                                                   ENERGY_FORCE
 GLOBAL| FFT library                                                       FFTW3
 GLOBAL| Diagonalization library                                            ELPA
 GLOBAL| Minimum number of eigenvectors for ELPA usage                        16
 GLOBAL| Orthonormality check for eigenvectors                          DISABLED
 GLOBAL| Matrix multiplication library                                 ScaLAPACK
 GLOBAL| All-to-all communication in single precision                          F
 GLOBAL| FFTs using library dependent lengths                                  F
 GLOBAL| Grid backend                                                       AUTO
 GLOBAL| Global print level                                                  LOW
 GLOBAL| MPI I/O enabled                                                       T
 GLOBAL| Total number of message passing processes                             1
 GLOBAL| Number of threads for this process                                   16
 GLOBAL| This output is from process                                           0
 GLOBAL| Stack size for threads created by OpenMP (OMP_STACKSIZE)        default
 GLOBAL| CPU model name                      12th Gen Intel(R) Core(TM) i7-1260P

 MEMORY| system memory details [Kb]
 MEMORY|                        rank 0           min           max       average
 MEMORY| MemTotal             12251484      12251484      12251484      12251484
 MEMORY| MemFree              10705144      10705144      10705144      10705144
 MEMORY| Buffers                 41404         41404         41404         41404
 MEMORY| Cached                 298720        298720        298720        298720
 MEMORY| Slab                   210368        210368        210368        210368
 MEMORY| SReclaimable           144828        144828        144828        144828
 MEMORY| MemLikelyFree        11190096      11190096      11190096      11190096



                      ************* ******** ***********   
                     ************* **********************  
                     ****     **** ****      ***********   
                     ******** ****  *******     ****       
                     *******  ****   *******   ****        
                     ****     ****       ****  ****        
                     ****     **** **********  ****        
                      ****     **** ********    ****       
                     FRONTIERS IN SIMULATION TECHNOLOGY    
                                                           
                        C.J. Mundy, S. Balasubramanian,    
                     Ken Bagchi, J. Hutter, Ari Seitsonen  
                      IFW Kuo, T. Laino, J. VandeVondele   
                                 Version 1.0               

                                                           


 *** WARNING in cell_methods.F:140 :: Cell Information provided through    ***
 *** vectors A, B and C in conjunction with ABC. The definition of the ABC ***
 *** keyword will override the one provided by A,B and C.                  ***


 EWALD| Summation is done by:                                               SPME
 EWALD| Alpha parameter [       ANGSTROM^-1]                              0.5000
 EWALD| Real Space Cutoff [          ANGSTROM]                            6.7478
 EWALD| G-space max. Miller index                         40        40        40
 EWALD| Spline interpolation order                                             6

 *** WARNING in cell_methods.F:140 :: Cell Information provided through    ***
 *** vectors A, B and C in conjunction with ABC. The definition of the ABC ***
 *** keyword will override the one provided by A,B and C.                  ***


 GENERATE|  Preliminary Number of Bonds generated:                             0
 GENERATE|  Achieved consistency in connectivity generation.
 CHARGE_INFO| Total Charge of the Classical System:                     0.000000

 FORCEFIELD| WARNING: A non Critical ForceField parameter is missing! CP2K GOES!
 FORCEFIELD| Non critical parameters are:Urey-Bradley,Torsions,Impropers, Opbends and 1-4
 FORCEFIELD| All missing parameters will not contribute to the potential energy!
 FORCEFIELD| Activate the print key FF_INFO to have a list of missing parameters


 SPLINE_INFO| Generating 3 splines for NONBONDED14 interactions 
              Due to 2 different atomic kinds
  ...1  ...2  ...3
 SPLINE_INFO| Number of unique splines computed:            1
 SPLINE_INFO| Done

 SPLINE_INFO| Generating 3 splines for NONBONDED interactions 
              Due to 2 different atomic kinds
  ...1  ...2  ...3
 SPLINE_INFO| Number of unique splines computed:            3
 SPLINE_INFO| Done

 ENERGY| Total FORCE_EVAL ( FIST ) energy [a.u.]:            -75.751997555078177

 -------------------------------------------------------------------------------
 -                                                                             -
 -                         MESSAGE PASSING PERFORMANCE                         -
 -                                                                             -
 -------------------------------------------------------------------------------

 ROUTINE             CALLS      AVE VOLUME [Bytes]
 MP_Group                1
 MP_Allreduce           29                    855.
 MP_Sync                 1
 -------------------------------------------------------------------------------


 -------------------------------------------------------------------------------
 -                                                                             -
 -                           R E F E R E N C E S                               -
 -                                                                             -
 -------------------------------------------------------------------------------
 
 CP2K version 9.1, the CP2K developers group (2021).
 CP2K is freely available from https://www.cp2k.org/ .

 Marek, A; Blum, V; Johanni, R; Havu, V; Lang, B; Auckenthaler, T;
 Heinecke, A; Bungartz, H; Lederer, H. 
 Journal of Physics: Condensed Matter, 26 (21), (2014). 
 The ELPA library: scalable parallel eigenvalue solutions for
 electronic structure
 theory and computational science.
 https://doi.org/10.1088/0953-8984/26/21/213201

 Frigo, M; Johnson, SG. 
 PROCEEDINGS OF THE IEEE, 93 (2), 216-231 (2005). 
 The design and implementation of FFTW3.
 https://doi.org/10.1109/JPROC.2004.840301

 ESSMANN, U; PERERA, L; BERKOWITZ, ML; DARDEN, T; LEE, H; PEDERSEN, LG. 
 JOURNAL OF CHEMICAL PHYSICS, 103 (19), 8577-8593 (1995). 
 A SMOOTH PARTICLE MESH EWALD METHOD.
 https://doi.org/10.1063/1.470117

 FUMI, FG; TOSI, MP. 
 JOURNAL OF PHYSICS AND CHEMISTRY OF SOLIDS, 25 (1), 31-43 (1964). 
 IONIC SIZES + BORN REPULSIVE PARAMETERS IN NACL-TYPE ALKALI HALIDES .I.
 HUGGINS-MAYER + PAULING FORMS.
 https://doi.org/10.1016/0022-3697(64)90159-3

 TOSI, MP; FUMI, FG. 
 JOURNAL OF PHYSICS AND CHEMISTRY OF SOLIDS, 25 (1), 45-52 (1964). 
 IONIC SIZES + BORN REPULSIVE PARAMETERS IN NACL-TYPE ALKALI HALIDES .2.
 GENERALIZED.
 https://doi.org/10.1016/0022-3697(64)90160-X


 -------------------------------------------------------------------------------
 -                                                                             -
 -                                T I M I N G                                  -
 -                                                                             -
 -------------------------------------------------------------------------------
 SUBROUTINE                       CALLS  ASD         SELF TIME        TOTAL TIME
                                MAXIMUM       AVERAGE  MAXIMUM  AVERAGE  MAXIMUM
 CP2K                                 1  1.0    0.020    0.020    0.085    0.085
 fist_calc_energy_force               1  2.0    0.000    0.000    0.026    0.026
 fist_create_force_env                1  2.0    0.000    0.000    0.021    0.021
 fist_init                            1  3.0    0.000    0.000    0.021    0.021
 fist_init_subsys                     1  4.0    0.000    0.000    0.014    0.014
 fft3d_s                              5  6.0    0.002    0.002    0.013    0.013
 write_particle_distances             1  5.0    0.012    0.012    0.012    0.012
 spme_evaluate                        1  3.0    0.001    0.001    0.011    0.011
 get_fft_scratch                      5  7.0    0.011    0.011    0.011    0.011
 force_nonbond                        1  3.0    0.009    0.009    0.009    0.009
 read_input                           1  2.0    0.003    0.003    0.008    0.008
 build_fist_neighbor_lists            2  6.0    0.000    0.000    0.007    0.007
 pw_transfer                          9  4.6    0.000    0.000    0.007    0.007
 fft_wrap_pw1pw2                      4  5.0    0.000    0.000    0.007    0.007
 fft_wrap_pw1pw2_10                   4  6.0    0.000    0.000    0.007    0.007
 list_control                         1  3.0    0.000    0.000    0.006    0.006
 topology_control                     1  4.0    0.000    0.000    0.006    0.006
 build_neighbor_lists                 2  7.0    0.006    0.006    0.006    0.006
 section_vals_parse                  26  6.1    0.001    0.001    0.005    0.005
 pw_scatter_s                         3  7.0    0.003    0.003    0.003    0.003
 val_create_parsing                 549  7.0    0.003    0.003    0.003    0.003
 coordinate_control                   1  5.0    0.000    0.000    0.002    0.002
 coordinate_control_READ_COORDI       1  6.0    0.000    0.000    0.002    0.002
 read_atoms_input                     1  7.0    0.002    0.002    0.002    0.002
 connectivity_control                 1  5.0    0.000    0.000    0.002    0.002
 topology_generate_bond               1  6.0    0.000    0.000    0.002    0.002
 -------------------------------------------------------------------------------

 The number of warnings for this run is : 2
 
 -------------------------------------------------------------------------------
  **** **** ******  **  PROGRAM ENDED AT                 2024-11-06 09:07:20.134
 ***** ** ***  *** **   PROGRAM RAN ON                           BOOK-4GL9QDET17
 **    ****   ******    PROGRAM RAN BY                                     mattw
 ***** **    ** ** **   PROGRAM PROCESS ID                                 10209
  **** **  *******  **  PROGRAM STOPPED IN             /home/mattw/work/NEB/NaCl

  **** **** ******  **  PROGRAM STARTED AT               2024-11-06 09:07:20.134
 ***** ** ***  *** **   PROGRAM STARTED ON                       BOOK-4GL9QDET17
 **    ****   ******    PROGRAM STARTED BY                                 mattw
 ***** **    ** ** **   PROGRAM PROCESS ID                                 10209
  **** **  *******  **  PROGRAM STARTED IN             /home/mattw/work/NEB/NaCl

 CP2K| version string:                                          CP2K version 9.1
 CP2K| source code revision number:                                  git:d8d7100
 CP2K| cp2kflags: omp libint fftw3 libxc elpa parallel mpi3 scalapack spglib    
 CP2K| is freely available from                            https://www.cp2k.org/
 CP2K| Program compiled at                          Sun Jan  9 17:14:22 UTC 2022
 CP2K| Program compiled on                                       lcy02-amd64-025
 CP2K| Program compiled for                                Linux-x86_64-gfortran
 CP2K| Data directory path                                       /usr/share/cp2k
 CP2K| Input file name                                                  NaCl.inp

 GLOBAL| Force Environment number                                              1
 GLOBAL| Basis set file name                                           BASIS_SET
 GLOBAL| Potential file name                                           POTENTIAL
 GLOBAL| MM Potential file name                                     MM_POTENTIAL
 GLOBAL| Coordinate file name                                      __STD_INPUT__
 GLOBAL| Method name                                                        CP2K
 GLOBAL| Project name                                                       NaCl
 GLOBAL| Run type                                                   ENERGY_FORCE
 GLOBAL| FFT library                                                       FFTW3
 GLOBAL| Diagonalization library                                            ELPA
 GLOBAL| Minimum number of eigenvectors for ELPA usage                        16
 GLOBAL| Orthonormality check for eigenvectors                          DISABLED
 GLOBAL| Matrix multiplication library                                 ScaLAPACK
 GLOBAL| All-to-all communication in single precision                          F
 GLOBAL| FFTs using library dependent lengths                                  F
 GLOBAL| Grid backend                                                       AUTO
 GLOBAL| Global print level                                                  LOW
 GLOBAL| MPI I/O enabled                                                       T
 GLOBAL| Total number of message passing processes                             1
 GLOBAL| Number of threads for this process                                   16
 GLOBAL| This output is from process                                           0
 GLOBAL| Stack size for threads created by OpenMP (OMP_STACKSIZE)        default
 GLOBAL| CPU model name                      12th Gen Intel(R) Core(TM) i7-1260P

 MEMORY| system memory details [Kb]
 MEMORY|                        rank 0           min           max       average
 MEMORY| MemTotal             12251484      12251484      12251484      12251484
 MEMORY| MemFree              10703976      10703976      10703976      10703976
 MEMORY| Buffers                 41404         41404         41404         41404
 MEMORY| Cached                 298720        298720        298720        298720
 MEMORY| Slab                   210368        210368        210368        210368
 MEMORY| SReclaimable           144828        144828        144828        144828
 MEMORY| MemLikelyFree        11188928      11188928      11188928      11188928



                      ************* ******** ***********   
                     ************* **********************  
                     ****     **** ****      ***********   
                     ******** ****  *******     ****       
                     *******  ****   *******   ****        
                     ****     ****       ****  ****        
                     ****     **** **********  ****        
                      ****     **** ********    ****       
                     FRONTIERS IN SIMULATION TECHNOLOGY    
                                                           
                        C.J. Mundy, S. Balasubramanian,    
                     Ken Bagchi, J. Hutter, Ari Seitsonen  
                      IFW Kuo, T. Laino, J. VandeVondele   
                                 Version 1.0               

                                                           


 *** WARNING in cell_methods.F:140 :: Cell Information provided through    ***
 *** vectors A, B and C in conjunction with ABC. The definition of the ABC ***
 *** keyword will override the one provided by A,B and C.                  ***


 EWALD| Summation is done by:                                               SPME
 EWALD| Alpha parameter [       ANGSTROM^-1]                              0.5000
 EWALD| Real Space Cutoff [          ANGSTROM]                            6.7478
 EWALD| G-space max. Miller index                         40        40        40
 EWALD| Spline interpolation order                                             6

 *** WARNING in cell_methods.F:140 :: Cell Information provided through    ***
 *** vectors A, B and C in conjunction with ABC. The definition of the ABC ***
 *** keyword will override the one provided by A,B and C.                  ***


 GENERATE|  Preliminary Number of Bonds generated:                             0
 GENERATE|  Achieved consistency in connectivity generation.
 CHARGE_INFO| Total Charge of the Classical System:                     1.000000

 FORCEFIELD| WARNING: A non Critical ForceField parameter is missing! CP2K GOES!
 FORCEFIELD| Non critical parameters are:Urey-Bradley,Torsions,Impropers, Opbends and 1-4
 FORCEFIELD| All missing parameters will not contribute to the potential energy!
 FORCEFIELD| Activate the print key FF_INFO to have a list of missing parameters


 SPLINE_INFO| Generating 3 splines for NONBONDED14 interactions 
              Due to 2 different atomic kinds
  ...1  ...2  ...3
 SPLINE_INFO| Number of unique splines computed:            1
 SPLINE_INFO| Done

 SPLINE_INFO| Generating 3 splines for NONBONDED interactions 
              Due to 2 different atomic kinds
  ...1  ...2  ...3
 SPLINE_INFO| Number of unique splines computed:            3
 SPLINE_INFO| Done

 ENERGY| Total FORCE_EVAL ( FIST ) energy [a.u.]:            -75.486806593289870

 ENERGY| Total FORCE_EVAL ( FIST ) energy [a.u.]:            -75.486806593289899

 -------------------------------------------------------------------------------
 -                                                                             -
 -                         MESSAGE PASSING PERFORMANCE                         -
 -                                                                             -
 -------------------------------------------------------------------------------

 ROUTINE             CALLS      AVE VOLUME [Bytes]
 MP_Group                1
 MP_Allreduce           37                   1333.
 MP_Sync                 1
 -------------------------------------------------------------------------------


 -------------------------------------------------------------------------------
 -                                                                             -
 -                           R E F E R E N C E S                               -
 -                                                                             -
 -------------------------------------------------------------------------------
 
 CP2K version 9.1, the CP2K developers group (2021).
 CP2K is freely available from https://www.cp2k.org/ .

 Marek, A; Blum, V; Johanni, R; Havu, V; Lang, B; Auckenthaler, T;
 Heinecke, A; Bungartz, H; Lederer, H. 
 Journal of Physics: Condensed Matter, 26 (21), (2014). 
 The ELPA library: scalable parallel eigenvalue solutions for
 electronic structure
 theory and computational science.
 https://doi.org/10.1088/0953-8984/26/21/213201

 Frigo, M; Johnson, SG. 
 PROCEEDINGS OF THE IEEE, 93 (2), 216-231 (2005). 
 The design and implementation of FFTW3.
 https://doi.org/10.1109/JPROC.2004.840301

 ESSMANN, U; PERERA, L; BERKOWITZ, ML; DARDEN, T; LEE, H; PEDERSEN, LG. 
 JOURNAL OF CHEMICAL PHYSICS, 103 (19), 8577-8593 (1995). 
 A SMOOTH PARTICLE MESH EWALD METHOD.
 https://doi.org/10.1063/1.470117

 FUMI, FG; TOSI, MP. 
 JOURNAL OF PHYSICS AND CHEMISTRY OF SOLIDS, 25 (1), 31-43 (1964). 
 IONIC SIZES + BORN REPULSIVE PARAMETERS IN NACL-TYPE ALKALI HALIDES .I.
 HUGGINS-MAYER + PAULING FORMS.
 https://doi.org/10.1016/0022-3697(64)90159-3

 TOSI, MP; FUMI, FG. 
 JOURNAL OF PHYSICS AND CHEMISTRY OF SOLIDS, 25 (1), 45-52 (1964). 
 IONIC SIZES + BORN REPULSIVE PARAMETERS IN NACL-TYPE ALKALI HALIDES .2.
 GENERALIZED.
 https://doi.org/10.1016/0022-3697(64)90160-X


 -------------------------------------------------------------------------------
 -                                                                             -
 -                                T I M I N G                                  -
 -                                                                             -
 -------------------------------------------------------------------------------
 SUBROUTINE                       CALLS  ASD         SELF TIME        TOTAL TIME
                                MAXIMUM       AVERAGE  MAXIMUM  AVERAGE  MAXIMUM
 CP2K                                 1  1.0    0.024    0.024    0.438    0.438
 fist_calc_energy_force               2  2.0    0.000    0.000    0.383    0.383
 force_nonbond                        2  3.0    0.275    0.275    0.275    0.275
 spme_evaluate                        2  3.0    0.003    0.003    0.096    0.096
 pw_transfer                         18  4.6    0.001    0.001    0.067    0.067
 fft_wrap_pw1pw2                      8  5.0    0.000    0.000    0.056    0.056
 fft_wrap_pw1pw2_10                   8  6.0    0.009    0.009    0.056    0.056
 pw_poisson_solve                     2  4.0    0.000    0.000    0.035    0.035
 fft3d_s                              9  6.4    0.031    0.031    0.032    0.032
[...]
 *** vectors A, B and C in conjunction with ABC. The definition of the ABC ***
 *** keyword will override the one provided by A,B and C.                  ***


 EWALD| Summation is done by:                                               SPME
 EWALD| Alpha parameter [       ANGSTROM^-1]                              0.5000
 EWALD| Real Space Cutoff [          ANGSTROM]                            6.7478
 EWALD| G-space max. Miller index                         40        40        40
 EWALD| Spline interpolation order                                             6

 *** WARNING in cell_methods.F:140 :: Cell Information provided through    ***
 *** vectors A, B and C in conjunction with ABC. The definition of the ABC ***
 *** keyword will override the one provided by A,B and C.                  ***


 GENERATE|  Preliminary Number of Bonds generated:                             0
 GENERATE|  Achieved consistency in connectivity generation.
 CHARGE_INFO| Total Charge of the Classical System:                     0.000000

 FORCEFIELD| WARNING: A non Critical ForceField parameter is missing! CP2K GOES!
 FORCEFIELD| Non critical parameters are:Urey-Bradley,Torsions,Impropers, Opbends and 1-4
 FORCEFIELD| All missing parameters will not contribute to the potential energy!
 FORCEFIELD| Activate the print key FF_INFO to have a list of missing parameters


 SPLINE_INFO| Generating 3 splines for NONBONDED14 interactions 
              Due to 2 different atomic kinds
  ...1  ...2  ...3
 SPLINE_INFO| Number of unique splines computed:            1
 SPLINE_INFO| Done

 SPLINE_INFO| Generating 3 splines for NONBONDED interactions 
              Due to 2 different atomic kinds
  ...1  ...2  ...3
 SPLINE_INFO| Number of unique splines computed:            3
 SPLINE_INFO| Done

 ENERGY| Total FORCE_EVAL ( FIST ) energy [a.u.]:            -75.751997555078134

 -------------------------------------------------------------------------------
 -                                                                             -
 -                         MESSAGE PASSING PERFORMANCE                         -
 -                                                                             -
 -------------------------------------------------------------------------------

 ROUTINE             CALLS      AVE VOLUME [Bytes]
 MP_Group                1
 MP_Allreduce           29                    855.
 MP_Sync                 1
 -------------------------------------------------------------------------------


 -------------------------------------------------------------------------------
 -                                                                             -
 -                           R E F E R E N C E S                               -
 -                                                                             -
 -------------------------------------------------------------------------------
 
 CP2K version 9.1, the CP2K developers group (2021).
 CP2K is freely available from https://www.cp2k.org/ .

 Marek, A; Blum, V; Johanni, R; Havu, V; Lang, B; Auckenthaler, T;
 Heinecke, A; Bungartz, H; Lederer, H. 
 Journal of Physics: Condensed Matter, 26 (21), (2014). 
 The ELPA library: scalable parallel eigenvalue solutions for
 electronic structure
 theory and computational science.
 https://doi.org/10.1088/0953-8984/26/21/213201

 Frigo, M; Johnson, SG. 
 PROCEEDINGS OF THE IEEE, 93 (2), 216-231 (2005). 
 The design and implementation of FFTW3.
 https://doi.org/10.1109/JPROC.2004.840301

 ESSMANN, U; PERERA, L; BERKOWITZ, ML; DARDEN, T; LEE, H; PEDERSEN, LG. 
 JOURNAL OF CHEMICAL PHYSICS, 103 (19), 8577-8593 (1995). 
 A SMOOTH PARTICLE MESH EWALD METHOD.
 https://doi.org/10.1063/1.470117

 FUMI, FG; TOSI, MP. 
 JOURNAL OF PHYSICS AND CHEMISTRY OF SOLIDS, 25 (1), 31-43 (1964). 
 IONIC SIZES + BORN REPULSIVE PARAMETERS IN NACL-TYPE ALKALI HALIDES .I.
 HUGGINS-MAYER + PAULING FORMS.
 https://doi.org/10.1016/0022-3697(64)90159-3

 TOSI, MP; FUMI, FG. 
 JOURNAL OF PHYSICS AND CHEMISTRY OF SOLIDS, 25 (1), 45-52 (1964). 
 IONIC SIZES + BORN REPULSIVE PARAMETERS IN NACL-TYPE ALKALI HALIDES .2.
 GENERALIZED.
 https://doi.org/10.1016/0022-3697(64)90160-X


 -------------------------------------------------------------------------------
 -                                                                             -
 -                                T I M I N G                                  -
 -                                                                             -
 -------------------------------------------------------------------------------
 SUBROUTINE                       CALLS  ASD         SELF TIME        TOTAL TIME
                                MAXIMUM       AVERAGE  MAXIMUM  AVERAGE  MAXIMUM
 CP2K                                 1  1.0    0.020    0.020    0.079    0.079
 fist_create_force_env                1  2.0    0.000    0.000    0.022    0.022
 fist_init                            1  3.0    0.000    0.000    0.022    0.022
 fist_calc_energy_force               1  2.0    0.000    0.000    0.022    0.022
 fist_init_subsys                     1  4.0    0.000    0.000    0.015    0.015
 write_particle_distances             1  5.0    0.013    0.013    0.013    0.013
 force_nonbond                        1  3.0    0.010    0.010    0.010    0.010
 fft3d_s                              5  6.0    0.001    0.001    0.008    0.008
 build_fist_neighbor_lists            2  6.0    0.000    0.000    0.008    0.008
 get_fft_scratch                      5  7.0    0.007    0.007    0.007    0.007
 list_control                         1  3.0    0.000    0.000    0.007    0.007
 read_input                           1  2.0    0.003    0.003    0.007    0.007
 build_neighbor_lists                 2  7.0    0.006    0.006    0.006    0.006
 topology_control                     1  4.0    0.000    0.000    0.006    0.006
 spme_evaluate                        1  3.0    0.001    0.001    0.005    0.005
 section_vals_parse                  26  6.1    0.001    0.001    0.004    0.004
 pw_transfer                          9  4.6    0.000    0.000    0.003    0.003
 coordinate_control                   1  5.0    0.000    0.000    0.003    0.003
 coordinate_control_READ_COORDI       1  6.0    0.000    0.000    0.003    0.003
 read_atoms_input                     1  7.0    0.003    0.003    0.003    0.003
 fft_wrap_pw1pw2                      4  5.0    0.000    0.000    0.003    0.003
 fft_wrap_pw1pw2_10                   4  6.0    0.000    0.000    0.003    0.003
 connectivity_control                 1  5.0    0.000    0.000    0.002    0.002
 val_create_parsing                 549  7.0    0.002    0.002    0.002    0.002
 ewald_pw_init                        1  5.0    0.000    0.000    0.002    0.002
 topology_generate_bond               1  6.0    0.000    0.000    0.002    0.002
 pw_grid_setup                        1  6.0    0.000    0.000    0.002    0.002
 pw_grid_setup_internal               1  7.0    0.000    0.000    0.002    0.002
 -------------------------------------------------------------------------------

 The number of warnings for this run is : 2
 
 -------------------------------------------------------------------------------
  **** **** ******  **  PROGRAM ENDED AT                 2024-11-06 09:07:55.743
 ***** ** ***  *** **   PROGRAM RAN ON                           BOOK-4GL9QDET17
 **    ****   ******    PROGRAM RAN BY                                     mattw
 ***** **    ** ** **   PROGRAM PROCESS ID                                 10554
  **** **  *******  **  PROGRAM STOPPED IN             /home/mattw/work/NEB/NaCl

  **** **** ******  **  PROGRAM STARTED AT               2024-11-06 09:07:55.743
 ***** ** ***  *** **   PROGRAM STARTED ON                       BOOK-4GL9QDET17
 **    ****   ******    PROGRAM STARTED BY                                 mattw
 ***** **    ** ** **   PROGRAM PROCESS ID                                 10554
  **** **  *******  **  PROGRAM STARTED IN             /home/mattw/work/NEB/NaCl

 CP2K| version string:                                          CP2K version 9.1
 CP2K| source code revision number:                                  git:d8d7100
 CP2K| cp2kflags: omp libint fftw3 libxc elpa parallel mpi3 scalapack spglib    
 CP2K| is freely available from                            https://www.cp2k.org/
 CP2K| Program compiled at                          Sun Jan  9 17:14:22 UTC 2022
 CP2K| Program compiled on                                       lcy02-amd64-025
 CP2K| Program compiled for                                Linux-x86_64-gfortran
 CP2K| Data directory path                                       /usr/share/cp2k
 CP2K| Input file name                                                  NaCl.inp

 GLOBAL| Force Environment number                                              1
 GLOBAL| Basis set file name                                           BASIS_SET
 GLOBAL| Potential file name                                           POTENTIAL
 GLOBAL| MM Potential file name                                     MM_POTENTIAL
 GLOBAL| Coordinate file name                                      __STD_INPUT__
 GLOBAL| Method name                                                        CP2K
 GLOBAL| Project name                                                       NaCl
 GLOBAL| Run type                                                   ENERGY_FORCE
 GLOBAL| FFT library                                                       FFTW3
 GLOBAL| Diagonalization library                                            ELPA
 GLOBAL| Minimum number of eigenvectors for ELPA usage                        16
 GLOBAL| Orthonormality check for eigenvectors                          DISABLED
 GLOBAL| Matrix multiplication library                                 ScaLAPACK
 GLOBAL| All-to-all communication in single precision                          F
 GLOBAL| FFTs using library dependent lengths                                  F
 GLOBAL| Grid backend                                                       AUTO
 GLOBAL| Global print level                                                  LOW
 GLOBAL| MPI I/O enabled                                                       T
 GLOBAL| Total number of message passing processes                             1
 GLOBAL| Number of threads for this process                                   16
 GLOBAL| This output is from process                                           0
 GLOBAL| Stack size for threads created by OpenMP (OMP_STACKSIZE)        default
 GLOBAL| CPU model name                      12th Gen Intel(R) Core(TM) i7-1260P

 MEMORY| system memory details [Kb]
 MEMORY|                        rank 0           min           max       average
 MEMORY| MemTotal             12251484      12251484      12251484      12251484
 MEMORY| MemFree              10704216      10704216      10704216      10704216
 MEMORY| Buffers                 41556         41556         41556         41556
 MEMORY| Cached                 298764        298764        298764        298764
 MEMORY| Slab                   210192        210192        210192        210192
 MEMORY| SReclaimable           144676        144676        144676        144676
 MEMORY| MemLikelyFree        11189212      11189212      11189212      11189212



                      ************* ******** ***********   
                     ************* **********************  
                     ****     **** ****      ***********   
                     ******** ****  *******     ****       
                     *******  ****   *******   ****        
                     ****     ****       ****  ****        
                     ****     **** **********  ****        
                      ****     **** ********    ****       
                     FRONTIERS IN SIMULATION TECHNOLOGY    
                                                           
                        C.J. Mundy, S. Balasubramanian,    
                     Ken Bagchi, J. Hutter, Ari Seitsonen  
                      IFW Kuo, T. Laino, J. VandeVondele   
                                 Version 1.0               

                                                           


 *** WARNING in cell_methods.F:140 :: Cell Information provided through    ***
 *** vectors A, B and C in conjunction with ABC. The definition of the ABC ***
 *** keyword will override the one provided by A,B and C.                  ***


 EWALD| Summation is done by:                                               SPME
 EWALD| Alpha parameter [       ANGSTROM^-1]                              0.5000
 EWALD| Real Space Cutoff [          ANGSTROM]                            6.7478
 EWALD| G-space max. Miller index                         40        40        40
 EWALD| Spline interpolation order                                             6

 *** WARNING in cell_methods.F:140 :: Cell Information provided through    ***
 *** vectors A, B and C in conjunction with ABC. The definition of the ABC ***
 *** keyword will override the one provided by A,B and C.                  ***


 GENERATE|  Preliminary Number of Bonds generated:                             0
 GENERATE|  Achieved consistency in connectivity generation.
 CHARGE_INFO| Total Charge of the Classical System:                     1.000000

 FORCEFIELD| WARNING: A non Critical ForceField parameter is missing! CP2K GOES!
 FORCEFIELD| Non critical parameters are:Urey-Bradley,Torsions,Impropers, Opbends and 1-4
 FORCEFIELD| All missing parameters will not contribute to the potential energy!
 FORCEFIELD| Activate the print key FF_INFO to have a list of missing parameters


 SPLINE_INFO| Generating 3 splines for NONBONDED14 interactions 
              Due to 2 different atomic kinds
  ...1  ...2  ...3
 SPLINE_INFO| Number of unique splines computed:            1
 SPLINE_INFO| Done

 SPLINE_INFO| Generating 3 splines for NONBONDED interactions 
              Due to 2 different atomic kinds
  ...1  ...2  ...3
 SPLINE_INFO| Number of unique splines computed:            3
 SPLINE_INFO| Done

 ENERGY| Total FORCE_EVAL ( FIST ) energy [a.u.]:            -75.486806593289842

 ENERGY| Total FORCE_EVAL ( FIST ) energy [a.u.]:            -75.486806593289913

 -------------------------------------------------------------------------------
 -                                                                             -
 -                         MESSAGE PASSING PERFORMANCE                         -
 -                                                                             -
 -------------------------------------------------------------------------------

 ROUTINE             CALLS      AVE VOLUME [Bytes]
 MP_Group                1
 MP_Allreduce           37                   1333.
 MP_Sync                 1
 -------------------------------------------------------------------------------


 -------------------------------------------------------------------------------
 -                                                                             -
 -                           R E F E R E N C E S                               -
 -                                                                             -
 -------------------------------------------------------------------------------
 
 CP2K version 9.1, the CP2K developers group (2021).
 CP2K is freely available from https://www.cp2k.org/ .

 Marek, A; Blum, V; Johanni, R; Havu, V; Lang, B; Auckenthaler, T;
 Heinecke, A; Bungartz, H; Lederer, H. 
 Journal of Physics: Condensed Matter, 26 (21), (2014). 
 The ELPA library: scalable parallel eigenvalue solutions for
 electronic structure
 theory and computational science.
 https://doi.org/10.1088/0953-8984/26/21/213201

 Frigo, M; Johnson, SG. 
 PROCEEDINGS OF THE IEEE, 93 (2), 216-231 (2005). 
 The design and implementation of FFTW3.
 https://doi.org/10.1109/JPROC.2004.840301

 ESSMANN, U; PERERA, L; BERKOWITZ, ML; DARDEN, T; LEE, H; PEDERSEN, LG. 
 JOURNAL OF CHEMICAL PHYSICS, 103 (19), 8577-8593 (1995). 
 A SMOOTH PARTICLE MESH EWALD METHOD.
 https://doi.org/10.1063/1.470117

 FUMI, FG; TOSI, MP. 
 JOURNAL OF PHYSICS AND CHEMISTRY OF SOLIDS, 25 (1), 31-43 (1964). 
 IONIC SIZES + BORN REPULSIVE PARAMETERS IN NACL-TYPE ALKALI HALIDES .I.
 HUGGINS-MAYER + PAULING FORMS.
 https://doi.org/10.1016/0022-3697(64)90159-3

 TOSI, MP; FUMI, FG. 
 JOURNAL OF PHYSICS AND CHEMISTRY OF SOLIDS, 25 (1), 45-52 (1964). 
 IONIC SIZES + BORN REPULSIVE PARAMETERS IN NACL-TYPE ALKALI HALIDES .2.
 GENERALIZED.
 https://doi.org/10.1016/0022-3697(64)90160-X


 -------------------------------------------------------------------------------
 -                                                                             -
 -                                T I M I N G                                  -
 -                                                                             -
 -------------------------------------------------------------------------------
 SUBROUTINE                       CALLS  ASD         SELF TIME        TOTAL TIME
                                MAXIMUM       AVERAGE  MAXIMUM  AVERAGE  MAXIMUM
 CP2K                                 1  1.0    0.026    0.026    0.100    0.100
 fist_calc_energy_force               2  2.0    0.000    0.000    0.041    0.041
 fist_create_force_env                1  2.0    0.000    0.000    0.025    0.025
 fist_init                            1  3.0    0.000    0.000    0.025    0.025
 force_nonbond                        2  3.0    0.015    0.015    0.015    0.015
 build_fist_neighbor_lists            3  5.3    0.000    0.000    0.014    0.014
 spme_evaluate                        2  3.0    0.002    0.002    0.014    0.014
 topology_control                     1  4.0    0.000    0.000    0.013    0.013
 list_control                         2  3.0    0.000    0.000    0.013    0.013
 build_neighbor_lists                 3  6.3    0.011    0.011    0.011    0.011
 fist_init_subsys                     1  4.0    0.000    0.000    0.011    0.011
 coordinate_control                   1  5.0    0.000    0.000    0.010    0.010
 coordinate_control_READ_COORDI       1  6.0    0.000    0.000    0.010    0.010
 read_atoms_input                     1  7.0    0.010    0.010    0.010    0.010
 write_particle_distances             1  5.0    0.009    0.009    0.009    0.009
 pw_transfer                         18  4.6    0.000    0.000    0.008    0.008
 fft_wrap_pw1pw2                      8  5.0    0.000    0.000    0.007    0.007
 fft_wrap_pw1pw2_10                   8  6.0    0.000    0.000    0.007    0.007
 read_input                           1  2.0    0.002    0.002    0.006    0.006
 fft3d_s                              9  6.4    0.003    0.003    0.004    0.004
 section_vals_parse                  26  6.1    0.001    0.001    0.004    0.004
 pw_scatter_s                         6  7.0    0.003    0.003    0.003    0.003
 pw_poisson_solve                     2  4.0    0.000    0.000    0.003    0.003
 connectivity_control                 1  5.0    0.000    0.000    0.003    0.003
 sort_neighbor_lists                  3  6.3    0.003    0.003    0.003    0.003
 topology_generate_bond               1  6.0    0.000    0.000    0.002    0.002
 val_create_parsing                 548  7.0    0.002    0.002    0.002    0.002
 -------------------------------------------------------------------------------

 The number of warnings for this run is : 4
 
 -------------------------------------------------------------------------------
  **** **** ******  **  PROGRAM ENDED AT                 2024-11-06 09:07:55.866
 ***** ** ***  *** **   PROGRAM RAN ON                           BOOK-4GL9QDET17
 **    ****   ******    PROGRAM RAN BY                                     mattw
 ***** **    ** ** **   PROGRAM PROCESS ID                                 10554
  **** **  *******  **  PROGRAM STOPPED IN             /home/mattw/work/NEB/NaCl
