
  **** **** ******  **  PROGRAM STARTED AT               2024-11-06 09:07:56.453
 ***** ** ***  *** **   PROGRAM STARTED ON                       BOOK-4GL9QDET17
 **    ****   ******    PROGRAM STARTED BY                                 mattw
 ***** **    ** ** **   PROGRAM PROCESS ID                                 10600
  **** **  *******  **  PROGRAM STARTED IN             /home/mattw/work/NEB/NaCl

 CP2K| version string:                                          CP2K version 9.1
 CP2K| source code revision number:                                  git:d8d7100
 CP2K| cp2kflags: omp libint fftw3 libxc elpa parallel mpi3 scalapack spglib    
 CP2K| is freely available from                            https://www.cp2k.org/
 CP2K| Program compiled at                          Sun Jan  9 17:14:22 UTC 2022
 CP2K| Program compiled on                                       lcy02-amd64-025
 CP2K| Program compiled for                                Linux-x86_64-gfortran
 CP2K| Data directory path                                       /usr/share/cp2k
 CP2K| Input file name                                              NaCl_vac.inp

 GLOBAL| Force Environment number                                              1
 GLOBAL| Basis set file name                                           BASIS_SET
 GLOBAL| Potential file name                                           POTENTIAL
 GLOBAL| MM Potential file name                                     MM_POTENTIAL
 GLOBAL| Coordinate file name                                      __STD_INPUT__
 GLOBAL| Method name                                                        CP2K
 GLOBAL| Project name                                                   NaCl_vac
 GLOBAL| Run type                                                   ENERGY_FORCE
 GLOBAL| FFT library                                                       FFTW3
 GLOBAL| Diagonalization library                                            ELPA
 GLOBAL| Minimum number of eigenvectors for ELPA usage                        16
 GLOBAL| Orthonormality check for eigenvectors                          DISABLED
 GLOBAL| Matrix multiplication library                                 ScaLAPACK
 GLOBAL| All-to-all communication in single precision                          F
 GLOBAL| FFTs using library dependent lengths                                  F
 GLOBAL| Grid backend                                                       AUTO
 GLOBAL| Global print level                                                  LOW
 GLOBAL| MPI I/O enabled                                                       T
 GLOBAL| Total number of message passing processes                             1
 GLOBAL| Number of threads for this process                                   16
 GLOBAL| This output is from process                                           0
 GLOBAL| Stack size for threads created by OpenMP (OMP_STACKSIZE)        default
 GLOBAL| CPU model name                      12th Gen Intel(R) Core(TM) i7-1260P

 MEMORY| system memory details [Kb]
 MEMORY|                        rank 0           min           max       average
 MEMORY| MemTotal             12251484      12251484      12251484      12251484
 MEMORY| MemFree               9947608       9947608       9947608       9947608
 MEMORY| Buffers                 41588         41588         41588         41588
 MEMORY| Cached                 364764        364764        364764        364764
 MEMORY| Slab                   214376        214376        214376        214376
 MEMORY| SReclaimable           146492        146492        146492        146492
 MEMORY| MemLikelyFree        10500452      10500452      10500452      10500452



                      ************* ******** ***********   
                     ************* **********************  
                     ****     **** ****      ***********   
                     ******** ****  *******     ****       
                     *******  ****   *******   ****        
                     ****     ****       ****  ****        
                     ****     **** **********  ****        
                      ****     **** ********    ****       
                     FRONTIERS IN SIMULATION TECHNOLOGY    
                                                           
                        C.J. Mundy, S. Balasubramanian,    
                     Ken Bagchi, J. Hutter, Ari Seitsonen  
                      IFW Kuo, T. Laino, J. VandeVondele   
                                 Version 1.0               

                                                           


 *** WARNING in cell_methods.F:140 :: Cell Information provided through    ***
 *** vectors A, B and C in conjunction with ABC. The definition of the ABC ***
 *** keyword will override the one provided by A,B and C.                  ***


 EWALD| Summation is done by:                                               SPME
 EWALD| Alpha parameter [       ANGSTROM^-1]                              0.5000
 EWALD| Real Space Cutoff [          ANGSTROM]                            6.7478
 EWALD| G-space max. Miller index                         40        40        40
 EWALD| Spline interpolation order                                             6

 *** WARNING in cell_methods.F:140 :: Cell Information provided through    ***
 *** vectors A, B and C in conjunction with ABC. The definition of the ABC ***
 *** keyword will override the one provided by A,B and C.                  ***


 GENERATE|  Preliminary Number of Bonds generated:                             0
 GENERATE|  Achieved consistency in connectivity generation.
 CHARGE_INFO| Total Charge of the Classical System:                     1.000000

 FORCEFIELD| WARNING: A non Critical ForceField parameter is missing! CP2K GOES!
 FORCEFIELD| Non critical parameters are:Urey-Bradley,Torsions,Impropers, Opbends and 1-4
 FORCEFIELD| All missing parameters will not contribute to the potential energy!
 FORCEFIELD| Activate the print key FF_INFO to have a list of missing parameters


 SPLINE_INFO| Generating 3 splines for NONBONDED14 interactions 
              Due to 2 different atomic kinds
  ...1  ...2  ...3
 SPLINE_INFO| Number of unique splines computed:            1
 SPLINE_INFO| Done

 SPLINE_INFO| Generating 3 splines for NONBONDED interactions 
              Due to 2 different atomic kinds
  ...1  ...2  ...3
 SPLINE_INFO| Number of unique splines computed:            3
 SPLINE_INFO| Done

 ENERGY| Total FORCE_EVAL ( FIST ) energy [a.u.]:            -75.492653972634670

 ENERGY| Total FORCE_EVAL ( FIST ) energy [a.u.]:            -75.501971507237215

 ENERGY| Total FORCE_EVAL ( FIST ) energy [a.u.]:            -75.512015990159142

 ENERGY| Total FORCE_EVAL ( FIST ) energy [a.u.]:            -75.521176669532750

 ENERGY| Total FORCE_EVAL ( FIST ) energy [a.u.]:            -75.529378137776064

 ENERGY| Total FORCE_EVAL ( FIST ) energy [a.u.]:            -75.536543214916122

 ENERGY| Total FORCE_EVAL ( FIST ) energy [a.u.]:            -75.542598060890256

 ENERGY| Total FORCE_EVAL ( FIST ) energy [a.u.]:            -75.547476697975114

 ENERGY| Total FORCE_EVAL ( FIST ) energy [a.u.]:            -75.551133559889323

 ENERGY| Total FORCE_EVAL ( FIST ) energy [a.u.]:            -75.553552079443932

 ENERGY| Total FORCE_EVAL ( FIST ) energy [a.u.]:            -75.554783398699698

 ENERGY| Total FORCE_EVAL ( FIST ) energy [a.u.]:            -75.554997581754577

 ENERGY| Total FORCE_EVAL ( FIST ) energy [a.u.]:            -75.555216954244003

 ENERGY| Total FORCE_EVAL ( FIST ) energy [a.u.]:            -75.555622398556039

 ENERGY| Total FORCE_EVAL ( FIST ) energy [a.u.]:            -75.556153878177582

 ENERGY| Total FORCE_EVAL ( FIST ) energy [a.u.]:            -75.556736564429954

 ENERGY| Total FORCE_EVAL ( FIST ) energy [a.u.]:            -75.557296144270978

 ENERGY| Total FORCE_EVAL ( FIST ) energy [a.u.]:            -75.557775151510000

 ENERGY| Total FORCE_EVAL ( FIST ) energy [a.u.]:            -75.558147719882641

 ENERGY| Total FORCE_EVAL ( FIST ) energy [a.u.]:            -75.558450910043277

 ENERGY| Total FORCE_EVAL ( FIST ) energy [a.u.]:            -75.558712104235070

 ENERGY| Total FORCE_EVAL ( FIST ) energy [a.u.]:            -75.558986403997480

 ENERGY| Total FORCE_EVAL ( FIST ) energy [a.u.]:            -75.559313532954974

 ENERGY| Total FORCE_EVAL ( FIST ) energy [a.u.]:            -75.559665167196940

 ENERGY| Total FORCE_EVAL ( FIST ) energy [a.u.]:            -75.559918182874114

 ENERGY| Total FORCE_EVAL ( FIST ) energy [a.u.]:            -75.559926430264312

 ENERGY| Total FORCE_EVAL ( FIST ) energy [a.u.]:            -75.559937859720975

 ENERGY| Total FORCE_EVAL ( FIST ) energy [a.u.]:            -75.559959504836769

 ENERGY| Total FORCE_EVAL ( FIST ) energy [a.u.]:            -75.559989122955869

 ENERGY| Total FORCE_EVAL ( FIST ) energy [a.u.]:            -75.560023788803647

 -------------------------------------------------------------------------------
 -                                                                             -
 -                         MESSAGE PASSING PERFORMANCE                         -
 -                                                                             -
 -------------------------------------------------------------------------------

 ROUTINE             CALLS      AVE VOLUME [Bytes]
 MP_Group                1
 MP_Allreduce          261                   2825.
 MP_Sync                 1
 -------------------------------------------------------------------------------


 -------------------------------------------------------------------------------
 -                                                                             -
 -                           R E F E R E N C E S                               -
 -                                                                             -
 -------------------------------------------------------------------------------
 
 CP2K version 9.1, the CP2K developers group (2021).
 CP2K is freely available from https://www.cp2k.org/ .

 Marek, A; Blum, V; Johanni, R; Havu, V; Lang, B; Auckenthaler, T;
 Heinecke, A; Bungartz, H; Lederer, H. 
 Journal of Physics: Condensed Matter, 26 (21), (2014). 
 The ELPA library: scalable parallel eigenvalue solutions for
 electronic structure
 theory and computational science.
 https://doi.org/10.1088/0953-8984/26/21/213201

 Frigo, M; Johnson, SG. 
 PROCEEDINGS OF THE IEEE, 93 (2), 216-231 (2005). 
 The design and implementation of FFTW3.
 https://doi.org/10.1109/JPROC.2004.840301

 ESSMANN, U; PERERA, L; BERKOWITZ, ML; DARDEN, T; LEE, H; PEDERSEN, LG. 
 JOURNAL OF CHEMICAL PHYSICS, 103 (19), 8577-8593 (1995). 
 A SMOOTH PARTICLE MESH EWALD METHOD.
 https://doi.org/10.1063/1.470117

 FUMI, FG; TOSI, MP. 
 JOURNAL OF PHYSICS AND CHEMISTRY OF SOLIDS, 25 (1), 31-43 (1964). 
 IONIC SIZES + BORN REPULSIVE PARAMETERS IN NACL-TYPE ALKALI HALIDES .I.
 HUGGINS-MAYER + PAULING FORMS.
 https://doi.org/10.1016/0022-3697(64)90159-3

 TOSI, MP; FUMI, FG. 
 JOURNAL OF PHYSICS AND CHEMISTRY OF SOLIDS, 25 (1), 45-52 (1964). 
 IONIC SIZES + BORN REPULSIVE PARAMETERS IN NACL-TYPE ALKALI HALIDES .2.
 GENERALIZED.
 https://doi.org/10.1016/0022-3697(64)90160-X


 -------------------------------------------------------------------------------
 -                                                                             -
 -                                T I M I N G                                  -
 -                                                                             -
 -------------------------------------------------------------------------------
 SUBROUTINE                       CALLS  ASD         SELF TIME        TOTAL TIME
                                MAXIMUM       AVERAGE  MAXIMUM  AVERAGE  MAXIMUM
 CP2K                                 1  1.0 1170.524 1170.524 1173.932 1173.932
 -------------------------------------------------------------------------------

 The number of warnings for this run is : 2
 
 -------------------------------------------------------------------------------
  **** **** ******  **  PROGRAM ENDED AT                 2024-11-06 09:27:33.726
 ***** ** ***  *** **   PROGRAM RAN ON                           BOOK-4GL9QDET17
 **    ****   ******    PROGRAM RAN BY                                     mattw
 ***** **    ** ** **   PROGRAM PROCESS ID                                 10600
  **** **  *******  **  PROGRAM STOPPED IN             /home/mattw/work/NEB/NaCl
 ENERGY| Total FORCE_EVAL ( FIST ) energy [a.u.]:            -75.537254051575303

 ENERGY| Total FORCE_EVAL ( FIST ) energy [a.u.]:            -75.541050377268945

 ENERGY| Total FORCE_EVAL ( FIST ) energy [a.u.]:            -75.543508944259358

 ENERGY| Total FORCE_EVAL ( FIST ) energy [a.u.]:            -75.544775826750723

 ENERGY| Total FORCE_EVAL ( FIST ) energy [a.u.]:            -75.545118176297521

 ENERGY| Total FORCE_EVAL ( FIST ) energy [a.u.]:            -75.545398749281404

 ENERGY| Total FORCE_EVAL ( FIST ) energy [a.u.]:            -75.545919129175459

 ENERGY| Total FORCE_EVAL ( FIST ) energy [a.u.]:            -75.546605788096841

 ENERGY| Total FORCE_EVAL ( FIST ) energy [a.u.]:            -75.547366792966685

 ENERGY| Total FORCE_EVAL ( FIST ) energy [a.u.]:            -75.548110121200679

 ENERGY| Total FORCE_EVAL ( FIST ) energy [a.u.]:            -75.548763036588767

 ENERGY| Total FORCE_EVAL ( FIST ) energy [a.u.]:            -75.549289293199266

 ENERGY| Total FORCE_EVAL ( FIST ) energy [a.u.]:            -75.549733722189671

 ENERGY| Total FORCE_EVAL ( FIST ) energy [a.u.]:            -75.550119272015721

 ENERGY| Total FORCE_EVAL ( FIST ) energy [a.u.]:            -75.550505286256879

 ENERGY| Total FORCE_EVAL ( FIST ) energy [a.u.]:            -75.550940052314701

 ENERGY| Total FORCE_EVAL ( FIST ) energy [a.u.]:            -75.551398626072483

 ENERGY| Total FORCE_EVAL ( FIST ) energy [a.u.]:            -75.551747423140867

 ENERGY| Total FORCE_EVAL ( FIST ) energy [a.u.]:            -75.551817722139859

 ENERGY| Total FORCE_EVAL ( FIST ) energy [a.u.]:            -75.551834058012687

 ENERGY| Total FORCE_EVAL ( FIST ) energy [a.u.]:            -75.551865128065359

 ENERGY| Total FORCE_EVAL ( FIST ) energy [a.u.]:            -75.551907963536891

 ENERGY| Total FORCE_EVAL ( FIST ) energy [a.u.]:            -75.551958661458769

 -------------------------------------------------------------------------------
 -                                                                             -
 -                         MESSAGE PASSING PERFORMANCE                         -
 -                                                                             -
 -------------------------------------------------------------------------------

 ROUTINE             CALLS      AVE VOLUME [Bytes]
 MP_Group                1
 MP_Allreduce          261                   2825.
 MP_Sync                 1
 -------------------------------------------------------------------------------


 -------------------------------------------------------------------------------
 -                                                                             -
 -                           R E F E R E N C E S                               -
 -                                                                             -
 -------------------------------------------------------------------------------
 
 CP2K version 9.1, the CP2K developers group (2021).
 CP2K is freely available from https://www.cp2k.org/ .

 Marek, A; Blum, V; Johanni, R; Havu, V; Lang, B; Auckenthaler, T;
 Heinecke, A; Bungartz, H; Lederer, H. 
 Journal of Physics: Condensed Matter, 26 (21), (2014). 
 The ELPA library: scalable parallel eigenvalue solutions for
 electronic structure
 theory and computational science.
 https://doi.org/10.1088/0953-8984/26/21/213201

 Frigo, M; Johnson, SG. 
 PROCEEDINGS OF THE IEEE, 93 (2), 216-231 (2005). 
 The design and implementation of FFTW3.
 https://doi.org/10.1109/JPROC.2004.840301

 ESSMANN, U; PERERA, L; BERKOWITZ, ML; DARDEN, T; LEE, H; PEDERSEN, LG. 
 JOURNAL OF CHEMICAL PHYSICS, 103 (19), 8577-8593 (1995). 
 A SMOOTH PARTICLE MESH EWALD METHOD.
 https://doi.org/10.1063/1.470117

 FUMI, FG; TOSI, MP. 
 JOURNAL OF PHYSICS AND CHEMISTRY OF SOLIDS, 25 (1), 31-43 (1964). 
 IONIC SIZES + BORN REPULSIVE PARAMETERS IN NACL-TYPE ALKALI HALIDES .I.
 HUGGINS-M
 GENERATE|  Preliminary Number of Bonds generated:                             0
 GENERATE|  Achieved consistency in connectivity generation.
 CHARGE_INFO| Total Charge of the Classical System:                     1.000000

 FORCEFIELD| WARNING: A non Critical ForceField parameter is missing! CP2K GOES!
 FORCEFIELD| Non critical parameters are:Urey-Bradley,Torsions,Impropers, Opbends and 1-4
 FORCEFIELD| All missing parameters will not contribute to the potential energy!
 FORCEFIELD| Activate the print key FF_INFO to have a list of missing parameters


 SPLINE_INFO| Generating 3 splines for NONBONDED14 interactions 
              Due to 2 different atomic kinds
  ...1  ...2  ...3
 SPLINE_INFO| Number of unique splines computed:            1
 SPLINE_INFO| Done

 SPLINE_INFO| Generating 3 splines for NONBONDED interactions 
              Due to 2 different atomic kinds
  ...1  ...2  ...3
 SPLINE_INFO| Number of unique splines computed:            3
 SPLINE_INFO| Done

 ENERGY| Total FORCE_EVAL ( FIST ) energy [a.u.]:            -75.440553813539893

 ENERGY| Total FORCE_EVAL ( FIST ) energy [a.u.]:            -75.459186208897336

 ENERGY| Total FORCE_EVAL ( FIST ) energy [a.u.]:            -75.477443644062333

 ENERGY| Total FORCE_EVAL ( FIST ) energy [a.u.]:            -75.492460420592920

 ENERGY| Total FORCE_EVAL ( FIST ) energy [a.u.]:            -75.504563542624879

 ENERGY| Total FORCE_EVAL ( FIST ) energy [a.u.]:            -75.514046422259526

 ENERGY| Total FORCE_EVAL ( FIST ) energy [a.u.]:            -75.521180719604061

 ENERGY| Total FORCE_EVAL ( FIST ) energy [a.u.]:            -75.526235321839337

 ENERGY| Total FORCE_EVAL ( FIST ) energy [a.u.]:            -75.529510392846987

 ENERGY| Total FORCE_EVAL ( FIST ) energy [a.u.]:            -75.531376393560265

 ENERGY| Total FORCE_EVAL ( FIST ) energy [a.u.]:            -75.532290114450234

 ENERGY| Total FORCE_EVAL ( FIST ) energy [a.u.]:            -75.532729978557910

 ENERGY| Total FORCE_EVAL ( FIST ) energy [a.u.]:            -75.533144074929780

 ENERGY| Total FORCE_EVAL ( FIST ) energy [a.u.]:            -75.533904787466085

 ENERGY| Total FORCE_EVAL ( FIST ) energy [a.u.]:            -75.534891325852414

 ENERGY| Total FORCE_EVAL ( FIST ) energy [a.u.]:            -75.535955130135690

 ENERGY| Total FORCE_EVAL ( FIST ) energy [a.u.]:            -75.536951775055101

 ENERGY| Total FORCE_EVAL ( FIST ) energy [a.u.]:            -75.537773828974053

 ENERGY| Total FORCE_EVAL ( FIST ) energy [a.u.]:            -75.538379398694801

 ENERGY| Total FORCE_EVAL ( FIST ) energy [a.u.]:            -75.538840085211731

 ENERGY| Total FORCE_EVAL ( FIST ) energy [a.u.]:            -75.539223676634450

 ENERGY| Total FORCE_EVAL ( FIST ) energy [a.u.]:            -75.539649986011156

 ENERGY| Total FORCE_EVAL ( FIST ) energy [a.u.]:            -75.540205481974326

 ENERGY| Total FORCE_EVAL ( FIST ) energy [a.u.]:            -75.540848239507469

 ENERGY| Total FORCE_EVAL ( FIST ) energy [a.u.]:            -75.541366392491142

 ENERGY| Total FORCE_EVAL ( FIST ) energy [a.u.]:            -75.541506368982354

 ENERGY| Total FORCE_EVAL ( FIST ) energy [a.u.]:            -75.541526920647428

 ENERGY| Total FORCE_EVAL ( FIST ) energy [a.u.]:            -75.541565820552691

 ENERGY| Total FORCE_EVAL ( FIST ) energy [a.u.]:            -75.541619010104085

 ENERGY| Total FORCE_EVAL ( FIST ) energy [a.u.]:            -75.541681230386359

 -------------------------------------------------------------------------------
 -                                                                             -
 -                         MESSAGE PASSING PERFORMANCE                         -
 -                                                                             -
 -------------------------------------------------------------------------------

 ROUTINE             CALLS      AVE VOLUME [Bytes]
 MP_Group                1
 MP_Allreduce          261                   2825.
 MP_Sync                 1
 -------------------------------------------------------------------------------


 -------------------------------------------------------------------------------
 -                                                                             -
 -                           R E F E R E N C E S                               -
 -                                                                             -
 -------------------------------------------------------------------------------
 
 CP2K version 9.1, the CP2K developers group (2021).
 CP2K is freely available from https://www.cp2k.org/ .

 Marek, A; Blum, V; Johanni, R; Havu, V; Lang, B; Auckenthaler, T;
 Heinecke, A; Bungartz, H; Lederer, H. 
 Journal of Physics: Condensed Matter, 26 (21), (2014). 
 The ELPA library: scalable parallel eigenvalue solutions for
 electronic structure
 theory and computational science.
 https://doi.org/10.1088/0953-8984/26/21/213201

 Frigo, M; Johnson, SG. 
 PROCEEDINGS OF THE IEEE, 93 (2), 216-231 (2005). 
 The design and implementation of FFTW3.
 https://doi.org/10.1109/JPROC.2004.840301

 ESSMANN, U; PERERA, L; BERKOWITZ, ML; DARDEN, T; LEE, H; PEDERSEN, LG. 
 JOURNAL OF CHEMICAL PHYSICS, 103 (19), 8577-8593 (1995). 
 A SMOOTH PARTICLE MESH EWALD METHOD.
 https://doi.org/10.1063/1.470117

 FUMI, FG; TOSI, MP. 
 JOURNAL OF PHYSICS AND CHEMISTRY OF SOLIDS, 25 (1), 31-43 (1964). 
 IONIC SIZES + BORN REPULSIVE PARAMETERS IN NACL-TYPE ALKALI HALIDES .I.
 HUGGINS-M
 GENERATE|  Preliminary Number of Bonds generated:                             0
 GENERATE|  Achieved consistency in connectivity generation.
 CHARGE_INFO| Total Charge of the Classical System:                     1.000000

 FORCEFIELD| WARNING: A non Critical ForceField parameter is missing! CP2K GOES!
 FORCEFIELD| Non critical parameters are:Urey-Bradley,Torsions,Impropers, Opbends and 1-4
 FORCEFIELD| All missing parameters will not contribute to the potential energy!
 FORCEFIELD| Activate the print key FF_INFO to have a list of missing parameters


 SPLINE_INFO| Generating 3 splines for NONBONDED14 interactions 
              Due to 2 different atomic kinds
  ...1  ...2  ...3
 SPLINE_INFO| Number of unique splines computed:            1
 SPLINE_INFO| Done

 SPLINE_INFO| Generating 3 splines for NONBONDED interactions 
              Due to 2 different atomic kinds
  ...1  ...2  ...3
 SPLINE_INFO| Number of unique splines computed:            3
 SPLINE_INFO| Done

 ENERGY| Total FORCE_EVAL ( FIST ) energy [a.u.]:            -75.421012879082994

 ENERGY| Total FORCE_EVAL ( FIST ) energy [a.u.]:            -75.445700802995546

 ENERGY| Total FORCE_EVAL ( FIST ) energy [a.u.]:            -75.468499567651932

 ENERGY| Total FORCE_EVAL ( FIST ) energy [a.u.]:            -75.486181502480918

 ENERGY| Total FORCE_EVAL ( FIST ) energy [a.u.]:            -75.499664350464641

 ENERGY| Total FORCE_EVAL ( FIST ) energy [a.u.]:            -75.509669667114352

 ENERGY| Total FORCE_EVAL ( FIST ) energy [a.u.]:            -75.516784459431307

 ENERGY| Total FORCE_EVAL ( FIST ) energy [a.u.]:            -75.521521407924737

 ENERGY| Total FORCE_EVAL ( FIST ) energy [a.u.]:            -75.524382857296061

 ENERGY| Total FORCE_EVAL ( FIST ) energy [a.u.]:            -75.525918951469706

 ENERGY| Total FORCE_EVAL ( FIST ) energy [a.u.]:            -75.526726866406705

 ENERGY| Total FORCE_EVAL ( FIST ) energy [a.u.]:            -75.527337930683331

 ENERGY| Total FORCE_EVAL ( FIST ) energy [a.u.]:            -75.527815404916197

 ENERGY| Total FORCE_EVAL ( FIST ) energy [a.u.]:            -75.528689976369691

 ENERGY| Total FORCE_EVAL ( FIST ) energy [a.u.]:            -75.529817773894067

 ENERGY| Total FORCE_EVAL ( FIST ) energy [a.u.]:            -75.531022064603818

 ENERGY| Total FORCE_EVAL ( FIST ) energy [a.u.]:            -75.532131727888952

 ENERGY| Total FORCE_EVAL ( FIST ) energy [a.u.]:            -75.533021223806671

 ENERGY| Total FORCE_EVAL ( FIST ) energy [a.u.]:            -75.533645803926575

 ENERGY| Total FORCE_EVAL ( FIST ) energy [a.u.]:            -75.534090033194417

 ENERGY| Total FORCE_EVAL ( FIST ) energy [a.u.]:            -75.534448204894190

 ENERGY| Total FORCE_EVAL ( FIST ) energy [a.u.]:            -75.534874923655636

 ENERGY| Total FORCE_EVAL ( FIST ) energy [a.u.]:            -75.535476206663859

 ENERGY| Total FORCE_EVAL ( FIST ) energy [a.u.]:            -75.536194549019498

 ENERGY| Total FORCE_EVAL ( FIST ) energy [a.u.]:            -75.536767415761716

 ENERGY| Total FORCE_EVAL ( FIST ) energy [a.u.]:            -75.536897911229588

 ENERGY| Total FORCE_EVAL ( FIST ) energy [a.u.]:            -75.536920442944535

 ENERGY| Total FORCE_EVAL ( FIST ) energy [a.u.]:            -75.536962898076794

 ENERGY| Total FORCE_EVAL ( FIST ) energy [a.u.]:            -75.537020485053290

 ENERGY| Total FORCE_EVAL ( FIST ) energy [a.u.]:            -75.537087038957850

 -------------------------------------------------------------------------------
 -                                                                             -
 -                         MESSAGE PASSING PERFORMANCE                         -
 -                                                                             -
 -------------------------------------------------------------------------------

 ROUTINE             CALLS      AVE VOLUME [Bytes]
 MP_Group                1
 MP_Allreduce          261                   2825.
 MP_Sync                 1
 -------------------------------------------------------------------------------


 -------------------------------------------------------------------------------
 -                                                                             -
 -                           R E F E R E N C E S                               -
 -                                                                             -
 -------------------------------------------------------------------------------
 
 CP2K version 9.1, the CP2K developers group (2021).
 CP2K is freely available from https://www.cp2k.org/ .

 Marek, A; Blum, V; Johanni, R; Havu, V; Lang, B; Auckenthaler, T;
 Heinecke, A; Bungartz, H; Lederer, H. 
 Journal of Physics: Condensed Matter, 26 (21), (2014). 
 The ELPA library: scalable parallel eigenvalue solutions for
 electronic structure
 theory and computational science.
 https://doi.org/10.1088/0953-8984/26/21/213201

 Frigo, M; Johnson, SG. 
 PROCEEDINGS OF THE IEEE, 93 (2), 216-231 (2005). 
 The design and implementation of FFTW3.
 https://doi.org/10.1109/JPROC.2004.840301

 ESSMANN, U; PERERA, L; BERKOWITZ, ML; DARDEN, T; LEE, H; PEDERSEN, LG. 
 JOURNAL OF CHEMICAL PHYSICS, 103 (19), 8577-8593 (1995). 
 A SMOOTH PARTICLE MESH EWALD METHOD.
 https://doi.org/10.1063/1.470117

 FUMI, FG; TOSI, MP. 
 JOURNAL OF PHYSICS AND CHEMISTRY OF SOLIDS, 25 (1), 31-43 (1964). 
 IONIC SIZES + BORN REPULSIVE PARAMETERS IN NACL-TYPE ALKALI HALIDES .I.
 HUGGINS-M
 GENERATE|  Preliminary Number of Bonds generated:                             0
 GENERATE|  Achieved consistency in connectivity generation.
 CHARGE_INFO| Total Charge of the Classical System:                     1.000000

 FORCEFIELD| WARNING: A non Critical ForceField parameter is missing! CP2K GOES!
 FORCEFIELD| Non critical parameters are:Urey-Bradley,Torsions,Impropers, Opbends and 1-4
 FORCEFIELD| All missing parameters will not contribute to the potential energy!
 FORCEFIELD| Activate the print key FF_INFO to have a list of missing parameters


 SPLINE_INFO| Generating 3 splines for NONBONDED14 interactions 
              Due to 2 different atomic kinds
  ...1  ...2  ...3
 SPLINE_INFO| Number of unique splines computed:            1
 SPLINE_INFO| Done

 SPLINE_INFO| Generating 3 splines for NONBONDED interactions 
              Due to 2 different atomic kinds
  ...1  ...2  ...3
 SPLINE_INFO| Number of unique splines computed:            3
 SPLINE_INFO| Done

 ENERGY| Total FORCE_EVAL ( FIST ) energy [a.u.]:            -75.440553813539921

 ENERGY| Total FORCE_EVAL ( FIST ) energy [a.u.]:            -75.459186208897307

 ENERGY| Total FORCE_EVAL ( FIST ) energy [a.u.]:            -75.477443644062305

 ENERGY| Total FORCE_EVAL ( FIST ) energy [a.u.]:            -75.492460420592934

 ENERGY| Total FORCE_EVAL ( FIST ) energy [a.u.]:            -75.504563542624936

 ENERGY| Total FORCE_EVAL ( FIST ) energy [a.u.]:            -75.514046422259526

 ENERGY| Total FORCE_EVAL ( FIST ) energy [a.u.]:            -75.521180719604047

 ENERGY| Total FORCE_EVAL ( FIST ) energy [a.u.]:            -75.526235321839380

 ENERGY| Total FORCE_EVAL ( FIST ) energy [a.u.]:            -75.529510392847001

 ENERGY| Total FORCE_EVAL ( FIST ) energy [a.u.]:            -75.531376393560279

 ENERGY| Total FORCE_EVAL ( FIST ) energy [a.u.]:            -75.532290114450234

 ENERGY| Total FORCE_EVAL ( FIST ) energy [a.u.]:            -75.532729978557896

 ENERGY| Total FORCE_EVAL ( FIST ) energy [a.u.]:            -75.533144074929794

 ENERGY| Total FORCE_EVAL ( FIST ) energy [a.u.]:            -75.533904787466142

 ENERGY| Total FORCE_EVAL ( FIST ) energy [a.u.]:            -75.534891325852357

 ENERGY| Total FORCE_EVAL ( FIST ) energy [a.u.]:            -75.535955130135690

 ENERGY| Total FORCE_EVAL ( FIST ) energy [a.u.]:            -75.536951775055087

 ENERGY| Total FORCE_EVAL ( FIST ) energy [a.u.]:            -75.537773828974053

 ENERGY| Total FORCE_EVAL ( FIST ) energy [a.u.]:            -75.538379398694801

 ENERGY| Total FORCE_EVAL ( FIST ) energy [a.u.]:            -75.538840085211703

 ENERGY| Total FORCE_EVAL ( FIST ) energy [a.u.]:            -75.539223676634435

 ENERGY| Total FORCE_EVAL ( FIST ) energy [a.u.]:            -75.539649986011170

 ENERGY| Total FORCE_EVAL ( FIST ) energy [a.u.]:            -75.540205481974354

 ENERGY| Total FORCE_EVAL ( FIST ) energy [a.u.]:            -75.540848239507497

 ENERGY| Total FORCE_EVAL ( FIST ) energy [a.u.]:            -75.541366392491128

 ENERGY| Total FORCE_EVAL ( FIST ) energy [a.u.]:            -75.541506368982283

 ENERGY| Total FORCE_EVAL ( FIST ) energy [a.u.]:            -75.541526920647442

 ENERGY| Total FORCE_EVAL ( FIST ) energy [a.u.]:            -75.541565820552677

 ENERGY| Total FORCE_EVAL ( FIST ) energy [a.u.]:            -75.541619010104071

 ENERGY| Total FORCE_EVAL ( FIST ) energy [a.u.]:            -75.541681230386374

 -------------------------------------------------------------------------------
 -                                                                             -
 -                         MESSAGE PASSING PERFORMANCE                         -
 -                                                                             -
 -------------------------------------------------------------------------------

 ROUTINE             CALLS      AVE VOLUME [Bytes]
 MP_Group                1
 MP_Allreduce          261                   2825.
 MP_Sync                 1
 -------------------------------------------------------------------------------


 -------------------------------------------------------------------------------
 -                                                                             -
 -                           R E F E R E N C E S                               -
 -                                                                             -
 -------------------------------------------------------------------------------
 
 CP2K version 9.1, the CP2K developers group (2021).
 CP2K is freely available from https://www.cp2k.org/ .

 Marek, A; Blum, V; Johanni, R; Havu, V; Lang, B; Auckenthaler, T;
 Heinecke, A; Bungartz, H; Lederer, H. 
 Journal of Physics: Condensed Matter, 26 (21), (2014). 
 The ELPA library: scalable parallel eigenvalue solutions for
 electronic structure
 theory and computational science.
 https://doi.org/10.1088/0953-8984/26/21/213201

 Frigo, M; Johnson, SG. 
 PROCEEDINGS OF THE IEEE, 93 (2), 216-231 (2005). 
 The design and implementation of FFTW3.
 https://doi.org/10.1109/JPROC.2004.840301

 ESSMANN, U; PERERA, L; BERKOWITZ, ML; DARDEN, T; LEE, H; PEDERSEN, LG. 
 JOURNAL OF CHEMICAL PHYSICS, 103 (19), 8577-8593 (1995). 
 A SMOOTH PARTICLE MESH EWALD METHOD.
 https://doi.org/10.1063/1.470117

 FUMI, FG; TOSI, MP. 
 JOURNAL OF PHYSICS AND CHEMISTRY OF SOLIDS, 25 (1), 31-43 (1964). 
 IONIC SIZES + BORN REPULSIVE PARAMETERS IN NACL-TYPE ALKALI HALIDES .I.
 HUGGINS-M
 GENERATE|  Preliminary Number of Bonds generated:                             0
 GENERATE|  Achieved consistency in connectivity generation.
 CHARGE_INFO| Total Charge of the Classical System:                     1.000000

 FORCEFIELD| WARNING: A non Critical ForceField parameter is missing! CP2K GOES!
 FORCEFIELD| Non critical parameters are:Urey-Bradley,Torsions,Impropers, Opbends and 1-4
 FORCEFIELD| All missing parameters will not contribute to the potential energy!
 FORCEFIELD| Activate the print key FF_INFO to have a list of missing parameters


 SPLINE_INFO| Generating 3 splines for NONBONDED14 interactions 
              Due to 2 different atomic kinds
  ...1  ...2  ...3
 SPLINE_INFO| Number of unique splines computed:            1
 SPLINE_INFO| Done

 SPLINE_INFO| Generating 3 splines for NONBONDED interactions 
              Due to 2 different atomic kinds
  ...1  ...2  ...3
 SPLINE_INFO| Number of unique splines computed:            3
 SPLINE_INFO| Done

 ENERGY| Total FORCE_EVAL ( FIST ) energy [a.u.]:            -75.475182149726962

 ENERGY| Total FORCE_EVAL ( FIST ) energy [a.u.]:            -75.486097199684579

 ENERGY| Total FORCE_EVAL ( FIST ) energy [a.u.]:            -75.497756137132313

 ENERGY| Total FORCE_EVAL ( FIST ) energy [a.u.]:            -75.508258742855361

 ENERGY| Total FORCE_EVAL ( FIST ) energy [a.u.]:            -75.517522771202849

 ENERGY| Total FORCE_EVAL ( FIST ) energy [a.u.]:            -75.525476228369286

 ENERGY| Total FORCE_EVAL ( FIST ) energy [a.u.]:            -75.532064268168327

 ENERGY| Total FORCE_EVAL ( FIST ) energy [a.u.]:            -75.537254051575303

 ENERGY| Total FORCE_EVAL ( FIST ) energy [a.u.]:            -75.541050377268931

 ENERGY| Total FORCE_EVAL ( FIST ) energy [a.u.]:            -75.543508944259329

 ENERGY| Total FORCE_EVAL ( FIST ) energy [a.u.]:            -75.544775826750708

 ENERGY| Total FORCE_EVAL ( FIST ) energy [a.u.]:            -75.545118176297578

 ENERGY| Total FORCE_EVAL ( FIST ) energy [a.u.]:            -75.545398749281389

 ENERGY| Total FORCE_EVAL ( FIST ) energy [a.u.]:            -75.545919129175488

 ENERGY| Total FORCE_EVAL ( FIST ) energy [a.u.]:            -75.546605788096855

 ENERGY| Total FORCE_EVAL ( FIST ) energy [a.u.]:            -75.547366792966656

 ENERGY| Total FORCE_EVAL ( FIST ) energy [a.u.]:            -75.548110121200693

 ENERGY| Total FORCE_EVAL ( FIST ) energy [a.u.]:            -75.548763036588753

 ENERGY| Total FORCE_EVAL ( FIST ) energy [a.u.]:            -75.549289293199294

 ENERGY| Total FORCE_EVAL ( FIST ) energy [a.u.]:            -75.549733722189600

 ENERGY| Total FORCE_EVAL ( FIST ) energy [a.u.]:            -75.550119272015735

 ENERGY| Total FORCE_EVAL ( FIST ) energy [a.u.]:            -75.550505286256893

 ENERGY| Total FORCE_EVAL ( FIST ) energy [a.u.]:            -75.550940052314658

 ENERGY| Total FORCE_EVAL ( FIST ) energy [a.u.]:            -75.551398626072469

 ENERGY| Total FORCE_EVAL ( FIST ) energy [a.u.]:            -75.551747423140881

 ENERGY| Total FORCE_EVAL ( FIST ) energy [a.u.]:            -75.551817722139887

 ENERGY| Total FORCE_EVAL ( FIST ) energy [a.u.]:            -75.551834058012687

 ENERGY| Total FORCE_EVAL ( FIST ) energy [a.u.]:            -75.551865128065330

 ENERGY| Total FORCE_EVAL ( FIST ) energy [a.u.]:            -75.551907963536891

 ENERGY| Total FORCE_EVAL ( FIST ) energy [a.u.]:            -75.551958661458784

 -------------------------------------------------------------------------------
 -                                                                             -
 -                         MESSAGE PASSING PERFORMANCE                         -
 -                                                                             -
 -------------------------------------------------------------------------------

 ROUTINE             CALLS      AVE VOLUME [Bytes]
 MP_Group                1
 MP_Allreduce          261                   2825.
 MP_Sync                 1
 -------------------------------------------------------------------------------


 -------------------------------------------------------------------------------
 -                                                                             -
 -                           R E F E R E N C E S                               -
 -                                                                             -
 -------------------------------------------------------------------------------
 
 CP2K version 9.1, the CP2K developers group (2021).
 CP2K is freely available from https://www.cp2k.org/ .

 Marek, A; Blum, V; Johanni, R; Havu, V; Lang, B; Auckenthaler, T;
 Heinecke, A; Bungartz, H; Lederer, H. 
 Journal of Physics: Condensed Matter, 26 (21), (2014). 
 The ELPA library: scalable parallel eigenvalue solutions for
 electronic structure
 theory and computational science.
 https://doi.org/10.1088/0953-8984/26/21/213201

 Frigo, M; Johnson, SG. 
 PROCEEDINGS OF THE IEEE, 93 (2), 216-231 (2005). 
 The design and implementation of FFTW3.
 https://doi.org/10.1109/JPROC.2004.840301

 ESSMANN, U; PERERA, L; BERKOWITZ, ML; DARDEN, T; LEE, H; PEDERSEN, LG. 
 JOURNAL OF CHEMICAL PHYSICS, 103 (19), 8577-8593 (1995). 
 A SMOOTH PARTICLE MESH EWALD METHOD.
 https://doi.org/10.1063/1.470117

 FUMI, FG; TOSI, MP. 
 JOURNAL OF PHYSICS AND CHEMISTRY OF SOLIDS, 25 (1), 31-43 (1964). 
 IONIC SIZES + BORN REPULSIVE PARAMETERS IN NACL-TYPE ALKALI HALIDES .I.
 HUGGINS-M
 GENERATE|  Preliminary Number of Bonds generated:                             0
 GENERATE|  Achieved consistency in connectivity generation.
 CHARGE_INFO| Total Charge of the Classical System:                     1.000000

 FORCEFIELD| WARNING: A non Critical ForceField parameter is missing! CP2K GOES!
 FORCEFIELD| Non critical parameters are:Urey-Bradley,Torsions,Impropers, Opbends and 1-4
 FORCEFIELD| All missing parameters will not contribute to the potential energy!
 FORCEFIELD| Activate the print key FF_INFO to have a list of missing parameters


 SPLINE_INFO| Generating 3 splines for NONBONDED14 interactions 
              Due to 2 different atomic kinds
  ...1  ...2  ...3
 SPLINE_INFO| Number of unique splines computed:            1
 SPLINE_INFO| Done

 SPLINE_INFO| Generating 3 splines for NONBONDED interactions 
              Due to 2 different atomic kinds
  ...1  ...2  ...3
 SPLINE_INFO| Number of unique splines computed:            3
 SPLINE_INFO| Done

 ENERGY| Total FORCE_EVAL ( FIST ) energy [a.u.]:            -75.492653972634756

 ENERGY| Total FORCE_EVAL ( FIST ) energy [a.u.]:            -75.501971507237272

 ENERGY| Total FORCE_EVAL ( FIST ) energy [a.u.]:            -75.512015990159114

 ENERGY| Total FORCE_EVAL ( FIST ) energy [a.u.]:            -75.521176669532750

 ENERGY| Total FORCE_EVAL ( FIST ) energy [a.u.]:            -75.529378137776078

 ENERGY| Total FORCE_EVAL ( FIST ) energy [a.u.]:            -75.536543214916151

 ENERGY| Total FORCE_EVAL ( FIST ) energy [a.u.]:            -75.542598060890313

 ENERGY| Total FORCE_EVAL ( FIST ) energy [a.u.]:            -75.547476697975114

 ENERGY| Total FORCE_EVAL ( FIST ) energy [a.u.]:            -75.551133559889337

 ENERGY| Total FORCE_EVAL ( FIST ) energy [a.u.]:            -75.553552079443946

 ENERGY| Total FORCE_EVAL ( FIST ) energy [a.u.]:            -75.554783398699655

 ENERGY| Total FORCE_EVAL ( FIST ) energy [a.u.]:            -75.554997581754606

 ENERGY| Total FORCE_EVAL ( FIST ) energy [a.u.]:            -75.555216954244059

 ENERGY| Total FORCE_EVAL ( FIST ) energy [a.u.]:            -75.555622398556025

 ENERGY| Total FORCE_EVAL ( FIST ) energy [a.u.]:            -75.556153878177653

 ENERGY| Total FORCE_EVAL ( FIST ) energy [a.u.]:            -75.556736564429940

 ENERGY| Total FORCE_EVAL ( FIST ) energy [a.u.]:            -75.557296144270950

 ENERGY| Total FORCE_EVAL ( FIST ) energy [a.u.]:            -75.557775151509972

 ENERGY| Total FORCE_EVAL ( FIST ) energy [a.u.]:            -75.558147719882626

 ENERGY| Total FORCE_EVAL ( FIST ) energy [a.u.]:            -75.558450910043234

 ENERGY| Total FORCE_EVAL ( FIST ) energy [a.u.]:            -75.558712104235056

 ENERGY| Total FORCE_EVAL ( FIST ) energy [a.u.]:            -75.558986403997466

 ENERGY| Total FORCE_EVAL ( FIST ) energy [a.u.]:            -75.559313532954974

 ENERGY| Total FORCE_EVAL ( FIST ) energy [a.u.]:            -75.559665167196925

 ENERGY| Total FORCE_EVAL ( FIST ) energy [a.u.]:            -75.559918182874114

 ENERGY| Total FORCE_EVAL ( FIST ) energy [a.u.]:            -75.559926430264312

 ENERGY| Total FORCE_EVAL ( FIST ) energy [a.u.]:            -75.559937859720989

 ENERGY| Total FORCE_EVAL ( FIST ) energy [a.u.]:            -75.559959504836726

 ENERGY| Total FORCE_EVAL ( FIST ) energy [a.u.]:            -75.559989122955855

 ENERGY| Total FORCE_EVAL ( FIST ) energy [a.u.]:            -75.560023788803662

 -------------------------------------------------------------------------------
 -                                                                             -
 -                         MESSAGE PASSING PERFORMANCE                         -
 -                                                                             -
 -------------------------------------------------------------------------------

 ROUTINE             CALLS      AVE VOLUME [Bytes]
 MP_Group                1
 MP_Allreduce          261                   2825.
 MP_Sync                 1
 -------------------------------------------------------------------------------


 -------------------------------------------------------------------------------
 -                                                                             -
 -                           R E F E R E N C E S                               -
 -                                                                             -
 -------------------------------------------------------------------------------
 
 CP2K version 9.1, the CP2K developers group (2021).
 CP2K is freely available from https://www.cp2k.org/ .

 Marek, A; Blum, V; Johanni, R; Havu, V; Lang, B; Auckenthaler, T;
 Heinecke, A; Bungartz, H; Lederer, H. 
 Journal of Physics: Condensed Matter, 26 (21), (2014). 
 The ELPA library: scalable parallel eigenvalue solutions for
 electronic structure
 theory and computational science.
 https://doi.org/10.1088/0953-8984/26/21/213201

 Frigo, M; Johnson, SG. 
 PROCEEDINGS OF THE IEEE, 93 (2), 216-231 (2005). 
 The design and implementation of FFTW3.
 https://doi.org/10.1109/JPROC.2004.840301

 ESSMANN, U; PERERA, L; BERKOWITZ, ML; DARDEN, T; LEE, H; PEDERSEN, LG. 
 JOURNAL OF CHEMICAL PHYSICS, 103 (19), 8577-8593 (1995). 
 A SMOOTH PARTICLE MESH EWALD METHOD.
 https://doi.org/10.1063/1.470117

 FUMI, FG; TOSI, MP. 
 JOURNAL OF PHYSICS AND CHEMISTRY OF SOLIDS, 25 (1), 31-43 (1964). 
 IONIC SIZES + BORN REPULSIVE PARAMETERS IN NACL-TYPE ALKALI HALIDES .I.
 HUGGINS-MAYER + PAULING FORMS.
 https://doi.org/10.1016/0022-3697(64)90159-3

 TOSI, MP; FUMI, FG. 
 JOURNAL OF PHYSICS AND CHEMISTRY OF SOLIDS, 25 (1), 45-52 (1964). 
 IONIC SIZES + BORN REPULSIVE PARAMETERS IN NACL-TYPE ALKALI HALIDES .2.
 GENERALIZED.
 https://doi.org/10.1016/0022-3697(64)90160-X


 -------------------------------------------------------------------------------
 -                                                                             -
 -                                T I M I N G                                  -
 -                                                                             -
 -------------------------------------------------------------------------------
 SUBROUTINE                       CALLS  ASD         SELF TIME        TOTAL TIME
                                MAXIMUM       AVERAGE  MAXIMUM  AVERAGE  MAXIMUM
 CP2K                                 1  1.0 1173.938 1173.938 1174.954 1174.954
 -------------------------------------------------------------------------------

 The number of warnings for this run is : 2
 
 -------------------------------------------------------------------------------
  **** **** ******  **  PROGRAM ENDED AT                 2024-11-06 09:27:35.569
 ***** ** ***  *** **   PROGRAM RAN ON                           BOOK-4GL9QDET17
 **    ****   ******    PROGRAM RAN BY                                     mattw
 ***** **    ** ** **   PROGRAM PROCESS ID                                 10744
  **** **  *******  **  PROGRAM STOPPED IN             /home/mattw/work/NEB/NaCl
educe           29                    853.
 MP_Sync                 1
 -------------------------------------------------------------------------------


 -------------------------------------------------------------------------------
 -                                                                             -
 -                           R E F E R E N C E S                               -
 -                                                                             -
 -------------------------------------------------------------------------------
 
 CP2K version 9.1, the CP2K developers group (2021).
 CP2K is freely available from https://www.cp2k.org/ .

 Marek, A; Blum, V; Johanni, R; Havu, V; Lang, B; Auckenthaler, T;
 Heinecke, A; Bungartz, H; Lederer, H. 
 Journal of Physics: Condensed Matter, 26 (21), (2014). 
 The ELPA library: scalable parallel eigenvalue solutions for
 electronic structure
 theory and computational science.
 https://doi.org/10.1088/0953-8984/26/21/213201

 Frigo, M; Johnson, SG. 
 PROCEEDINGS OF THE IEEE, 93 (2), 216-231 (2005). 
 The design and implementation of FFTW3.
 https://doi.org/10.1109/JPROC.2004.840301

 ESSMANN, U; PERERA, L; BERKOWITZ, ML; DARDEN, T; LEE, H; PEDERSEN, LG. 
 JOURNAL OF CHEMICAL PHYSICS, 103 (19), 8577-8593 (1995). 
 A SMOOTH PARTICLE MESH EWALD METHOD.
 https://doi.org/10.1063/1.470117

 FUMI, FG; TOSI, MP. 
 JOURNAL OF PHYSICS AND CHEMISTRY OF SOLIDS, 25 (1), 31-43 (1964). 
 IONIC SIZES + BORN REPULSIVE PARAMETERS IN NACL-TYPE ALKALI HALIDES .I.
 HUGGINS-MAYER + PAULING FORMS.
 https://doi.org/10.1016/0022-3697(64)90159-3

 TOSI, MP; FUMI, FG. 
 JOURNAL OF PHYSICS AND CHEMISTRY OF SOLIDS, 25 (1), 45-52 (1964). 
 IONIC SIZES + BORN REPULSIVE PARAMETERS IN NACL-TYPE ALKALI HALIDES .2.
 GENERALIZED.
 https://doi.org/10.1016/0022-3697(64)90160-X


 -------------------------------------------------------------------------------
 -                                                                             -
 -                                T I M I N G                                  -
 -                                                                             -
 -------------------------------------------------------------------------------
 SUBROUTINE                       CALLS  ASD         SELF TIME        TOTAL TIME
                                MAXIMUM       AVERAGE  MAXIMUM  AVERAGE  MAXIMUM
 CP2K                                 1  1.0 1159.221 1159.221 1159.295 1159.295
 -------------------------------------------------------------------------------

 The number of warnings for this run is : 2
 
 -------------------------------------------------------------------------------
  **** **** ******  **  PROGRAM ENDED AT                 2024-11-06 09:27:34.042
 ***** ** ***  *** **   PROGRAM RAN ON                           BOOK-4GL9QDET17
 **    ****   ******    PROGRAM RAN BY                                     mattw
 ***** **    ** ** **   PROGRAM PROCESS ID                                 10577
  **** **  *******  **  PROGRAM STOPPED IN             /home/mattw/work/NEB/NaCl
ed through    ***
 *** vectors A, B and C in conjunction with ABC. The definition of the ABC ***
 *** keyword will override the one provided by A,B and C.                  ***


 EWALD| Summation is done by:                                               SPME
 EWALD| Alpha parameter [       ANGSTROM^-1]                              0.5000
 EWALD| Real Space Cutoff [          ANGSTROM]                            6.7478
 EWALD| G-space max. Miller index                         40        40        40
 EWALD| Spline interpolation order                                             6

 *** WARNING in cell_methods.F:140 :: Cell Information provided through    ***
 *** vectors A, B and C in conjunction with ABC. The definition of the ABC ***
 *** keyword will override the one provided by A,B and C.                  ***


 GENERATE|  Preliminary Number of Bonds generated:                             0
 GENERATE|  Achieved consistency in connectivity generation.
 CHARGE_INFO| Total Charge of the Classical System:                     1.000000

 FORCEFIELD| WARNING: A non Critical ForceField parameter is missing! CP2K GOES!
 FORCEFIELD| Non critical parameters are:Urey-Bradley,Torsions,Impropers, Opbends and 1-4
 FORCEFIELD| All missing parameters will not contribute to the potential energy!
 FORCEFIELD| Activate the print key FF_INFO to have a list of missing parameters


 SPLINE_INFO| Generating 3 splines for NONBONDED14 interactions 
              Due to 2 different atomic kinds
  ...1  ...2  ...3
 SPLINE_INFO| Number of unique splines computed:            1
 SPLINE_INFO| Done

 SPLINE_INFO| Generating 3 splines for NONBONDED interactions 
              Due to 2 different atomic kinds
  ...1  ...2  ...3
 SPLINE_INFO| Number of unique splines computed:            3
 SPLINE_INFO| Done

 ENERGY| Total FORCE_EVAL ( FIST ) energy [a.u.]:            -75.486806593289870

 -------------------------------------------------------------------------------
 -                                                                             -
 -                         MESSAGE PASSING PERFORMANCE                         -
 -                                                                             -
 -------------------------------------------------------------------------------

 ROUTINE             CALLS      AVE VOLUME [Bytes]
 MP_Group                1
 MP_Allreduce           29                    853.
 MP_Sync                 1
 -------------------------------------------------------------------------------


 -------------------------------------------------------------------------------
 -                                                                             -
 -                           R E F E R E N C E S                               -
 -                                                                             -
 -------------------------------------------------------------------------------
 
 CP2K version 9.1, the CP2K developers group (2021).
 CP2K is freely available from https://www.cp2k.org/ .

 Marek, A; Blum, V; Johanni, R; Havu, V; Lang, B; Auckenthaler, T;
 Heinecke, A; Bungartz, H; Lederer, H. 
 Journal of Physics: Condensed Matter, 26 (21), (2014). 
 The ELPA library: scalable parallel eigenvalue solutions for
 electronic structure
 theory and computational science.
 https://doi.org/10.1088/0953-8984/26/21/213201

 Frigo, M; Johnson, SG. 
 PROCEEDINGS OF THE IEEE, 93 (2), 216-231 (2005). 
 The design and implementation of FFTW3.
 https://doi.org/10.1109/JPROC.2004.840301

 ESSMANN, U; PERERA, L; BERKOWITZ, ML; DARDEN, T; LEE, H; PEDERSEN, LG. 
 JOURNAL OF CHEMICAL PHYSICS, 103 (19), 8577-8593 (1995). 
 A SMOOTH PARTICLE MESH EWALD METHOD.
 https://doi.org/10.1063/1.470117

 FUMI, FG; TOSI, MP. 
 JOURNAL OF PHYSICS AND CHEMISTRY OF SOLIDS, 25 (1), 31-43 (1964). 
 IONIC SIZES + BORN REPULSIVE PARAMETERS IN NACL-TYPE ALKALI HALIDES .I.
 HUGGINS-MAYER + PAULING FORMS.
 https://doi.org/10.1016/0022-3697(64)90159-3

 TOSI, MP; FUMI, FG. 
 JOURNAL OF PHYSICS AND CHEMISTRY OF SOLIDS, 25 (1), 45-52 (1964). 
 IONIC SIZES + BORN REPULSIVE PARAMETERS IN NACL-TYPE ALKALI HALIDES .2.
 GENERALIZED.
 https://doi.org/10.1016/0022-3697(64)90160-X


 -------------------------------------------------------------------------------
 -                                                                             -
 -                                T I M I N G                                  -
 -                                                                             -
 -------------------------------------------------------------------------------
 SUBROUTINE                       CALLS  ASD         SELF TIME        TOTAL TIME
                                MAXIMUM       AVERAGE  MAXIMUM  AVERAGE  MAXIMUM
 CP2K                                 1  1.0 1156.617 1156.617 1156.710 1156.710
 -------------------------------------------------------------------------------

 The number of warnings for this run is : 2
 
 -------------------------------------------------------------------------------
  **** **** ******  **  PROGRAM ENDED AT                 2024-11-06 09:27:31.586
 ***** ** ***  *** **   PROGRAM RAN ON                           BOOK-4GL9QDET17
 **    ****   ******    PROGRAM RAN BY                                     mattw
 ***** **    ** ** **   PROGRAM PROCESS ID                                 10767
  **** **  *******  **  PROGRAM STOPPED IN             /home/mattw/work/NEB/NaCl
ed through    ***
 *** vectors A, B and C in conjunction with ABC. The definition of the ABC ***
 *** keyword will override the one provided by A,B and C.                  ***


 EWALD| Summation is done by:                                               SPME
 EWALD| Alpha parameter [       ANGSTROM^-1]                              0.5000
 EWALD| Real Space Cutoff [          ANGSTROM]                            6.7478
 EWALD| G-space max. Miller index                         40        40        40
 EWALD| Spline interpolation order                                             6

 *** WARNING in cell_methods.F:140 :: Cell Information provided through    ***
 *** vectors A, B and C in conjunction with ABC. The definition of the ABC ***
 *** keyword will override the one provided by A,B and C.                  ***


 GENERATE|  Preliminary Number of Bonds generated:                             0
 GENERATE|  Achieved consistency in connectivity generation.
 CHARGE_INFO| Total Charge of the Classical System:                     1.000000

 FORCEFIELD| WARNING: A non Critical ForceField parameter is missing! CP2K GOES!
 FORCEFIELD| Non critical parameters are:Urey-Bradley,Torsions,Impropers, Opbends and 1-4
 FORCEFIELD| All missing parameters will not contribute to the potential energy!
 FORCEFIELD| Activate the print key FF_INFO to have a list of missing parameters


 SPLINE_INFO| Generating 3 splines for NONBONDED14 interactions 
              Due to 2 different atomic kinds
  ...1  ...2  ...3
 SPLINE_INFO| Number of unique splines computed:            1
 SPLINE_INFO| Done

 SPLINE_INFO| Generating 3 splines for NONBONDED interactions 
              Due to 2 different atomic kinds
  ...1  ...2  ...3
 SPLINE_INFO| Number of unique splines computed:            3
 SPLINE_INFO| Done

 ENERGY| Total FORCE_EVAL ( FIST ) energy [a.u.]:            -75.492653972634756

 ENERGY| Total FORCE_EVAL ( FIST ) energy [a.u.]:            -75.501971507237229

 ENERGY| Total FORCE_EVAL ( FIST ) energy [a.u.]:            -75.512015990159171

 ENERGY| Total FORCE_EVAL ( FIST ) energy [a.u.]:            -75.521176669532750

 ENERGY| Total FORCE_EVAL ( FIST ) energy [a.u.]:            -75.529378137776064

 ENERGY| Total FORCE_EVAL ( FIST ) energy [a.u.]:            -75.536543214916122

 ENERGY| Total FORCE_EVAL ( FIST ) energy [a.u.]:            -75.542598060890285

 ENERGY| Total FORCE_EVAL ( FIST ) energy [a.u.]:            -75.547476697975114

 ENERGY| Total FORCE_EVAL ( FIST ) energy [a.u.]:            -75.551133559889323

 ENERGY| Total FORCE_EVAL ( FIST ) energy [a.u.]:            -75.553552079443932

 ENERGY| Total FORCE_EVAL ( FIST ) energy [a.u.]:            -75.554783398699698

 ENERGY| Total FORCE_EVAL ( FIST ) energy [a.u.]:            -75.554997581754577

 ENERGY| Total FORCE_EVAL ( FIST ) energy [a.u.]:            -75.555216954244031

 ENERGY| Total FORCE_EVAL ( FIST ) energy [a.u.]:            -75.555622398556025

 ENERGY| Total FORCE_EVAL ( FIST ) energy [a.u.]:            -75.556153878177582

 ENERGY| Total FORCE_EVAL ( FIST ) energy [a.u.]:            -75.556736564429954

 ENERGY| Total FORCE_EVAL ( FIST ) energy [a.u.]:            -75.557296144270978

 ENERGY| Total FORCE_EVAL ( FIST ) energy [a.u.]:            -75.557775151510000

 ENERGY| Total FORCE_EVAL ( FIST ) energy [a.u.]:            -75.558147719882655

 ENERGY| Total FORCE_EVAL ( FIST ) energy [a.u.]:            -75.558450910043291

 ENERGY| Total FORCE_EVAL ( FIST ) energy [a.u.]:            -75.558712104235070

 ENERGY| Total FORCE_EVAL ( FIST ) energy [a.u.]:            -75.558986403997480

 ENERGY| Total FORCE_EVAL ( FIST ) energy [a.u.]:            -75.559313532954960

 ENERGY| Total FORCE_EVAL ( FIST ) energy [a.u.]:            -75.559665167196911

 ENERGY| Total FORCE_EVAL ( FIST ) energy [a.u.]:            -75.559918182874100

 ENERGY| Total FORCE_EVAL ( FIST ) energy [a.u.]:            -75.559926430264326

 ENERGY| Total FORCE_EVAL ( FIST ) energy [a.u.]:            -75.559937859720975

 ENERGY| Total FORCE_EVAL ( FIST ) energy [a.u.]:            -75.559959504836769

 ENERGY| Total FORCE_EVAL ( FIST ) energy [a.u.]:            -75.559989122955869

 ENERGY| Total FORCE_EVAL ( FIST ) energy [a.u.]:            -75.560023788803647

 -------------------------------------------------------------------------------
 -                                                                             -
 -                         MESSAGE PASSING PERFORMANCE                         -
 -                                                                             -
 -------------------------------------------------------------------------------

 ROUTINE             CALLS      AVE VOLUME [Bytes]
 MP_Group                1
 MP_Allreduce          261                   2825.
 MP_Sync                 1
 -------------------------------------------------------------------------------


 -------------------------------------------------------------------------------
 -                                                                             -
 -                           R E F E R E N C E S                               -
 -                                                                             -
 -------------------------------------------------------------------------------
 
 CP2K version 9.1, the CP2K developers group (2021).
 CP2K is freely available from https://www.cp2k.org/ .

 Marek, A; Blum, V; Johanni, R; Havu, V; Lang, B; Auckenthaler, T;
 Heinecke, A; Bungartz, H; Lederer, H. 
 Journal of Physics: Condensed Matter, 26 (21), (2014). 
 The ELPA library: scalable parallel eigenvalue solutions for
 electronic structure
 theory and computational science.
 https://doi.org/10.1088/0953-8984/26/21/213201

 Frigo, M; Johnson, SG. 
 PROCEEDINGS OF THE IEEE, 93 (2), 216-231 (2005). 
 The design and implementation of FFTW3.
 https://doi.org/10.1109/JPROC.2004.840301

 ESSMANN, U; PERERA, L; BERKOWITZ, ML; DARDEN, T; LEE, H; PEDERSEN, LG. 
 JOURNAL OF CHEMICAL PHYSICS, 103 (19), 8577-8593 (1995). 
 A SMOOTH PARTICLE MESH EWALD METHOD.
 https://doi.org/10.1063/1.470117

 FUMI, FG; TOSI, MP. 
 JOURNAL OF PHYSICS AND CHEMISTRY OF SOLIDS, 25 (1), 31-43 (1964). 
 IONIC SIZES + BORN REPULSIVE PARAMETERS IN NACL-TYPE ALKALI HALIDES .I.
 HUGGINS-M
 GENERATE|  Preliminary Number of Bonds generated:                             0
 GENERATE|  Achieved consistency in connectivity generation.
 CHARGE_INFO| Total Charge of the Classical System:                     1.000000

 FORCEFIELD| WARNING: A non Critical ForceField parameter is missing! CP2K GOES!
 FORCEFIELD| Non critical parameters are:Urey-Bradley,Torsions,Impropers, Opbends and 1-4
 FORCEFIELD| All missing parameters will not contribute to the potential energy!
 FORCEFIELD| Activate the print key FF_INFO to have a list of missing parameters


 SPLINE_INFO| Generating 3 splines for NONBONDED14 interactions 
              Due to 2 different atomic kinds
  ...1  ...2  ...3
 SPLINE_INFO| Number of unique splines computed:            1
 SPLINE_INFO| Done

 SPLINE_INFO| Generating 3 splines for NONBONDED interactions 
              Due to 2 different atomic kinds
  ...1  ...2  ...3
 SPLINE_INFO| Number of unique splines computed:            3
 SPLINE_INFO| Done

 ENERGY| Total FORCE_EVAL ( FIST ) energy [a.u.]:            -75.475182149726962

 ENERGY| Total FORCE_EVAL ( FIST ) energy [a.u.]:            -75.486097199684565

 ENERGY| Total FORCE_EVAL ( FIST ) energy [a.u.]:            -75.497756137132271

 ENERGY| Total FORCE_EVAL ( FIST ) energy [a.u.]:            -75.508258742855375

 ENERGY| Total FORCE_EVAL ( FIST ) energy [a.u.]:            -75.517522771202806

 ENERGY| Total FORCE_EVAL ( FIST ) energy [a.u.]:            -75.525476228369257

 ENERGY| Total FORCE_EVAL ( FIST ) energy [a.u.]:            -75.532064268168327

 ENERGY| Total FORCE_EVAL ( FIST ) energy [a.u.]:            -75.537254051575317

 ENERGY| Total FORCE_EVAL ( FIST ) energy [a.u.]:            -75.541050377268959

 ENERGY| Total FORCE_EVAL ( FIST ) energy [a.u.]:            -75.543508944259344

 ENERGY| Total FORCE_EVAL ( FIST ) energy [a.u.]:            -75.544775826750723

 ENERGY| Total FORCE_EVAL ( FIST ) energy [a.u.]:            -75.545118176297535

 ENERGY| Total FORCE_EVAL ( FIST ) energy [a.u.]:            -75.545398749281389

 ENERGY| Total FORCE_EVAL ( FIST ) energy [a.u.]:            -75.545919129175473

 ENERGY| Total FORCE_EVAL ( FIST ) energy [a.u.]:            -75.546605788096855

 ENERGY| Total FORCE_EVAL ( FIST ) energy [a.u.]:            -75.547366792966685

 ENERGY| Total FORCE_EVAL ( FIST ) energy [a.u.]:            -75.548110121200679

 ENERGY| Total FORCE_EVAL ( FIST ) energy [a.u.]:            -75.548763036588767

 ENERGY| Total FORCE_EVAL ( FIST ) energy [a.u.]:            -75.549289293199266

 ENERGY| Total FORCE_EVAL ( FIST ) energy [a.u.]:            -75.549733722189657

 ENERGY| Total FORCE_EVAL ( FIST ) energy [a.u.]:            -75.550119272015692

 ENERGY| Total FORCE_EVAL ( FIST ) energy [a.u.]:            -75.550505286256879

 ENERGY| Total FORCE_EVAL ( FIST ) energy [a.u.]:            -75.550940052314715

 ENERGY| Total FORCE_EVAL ( FIST ) energy [a.u.]:            -75.551398626072455

 ENERGY| Total FORCE_EVAL ( FIST ) energy [a.u.]:            -75.551747423140895

 ENERGY| Total FORCE_EVAL ( FIST ) energy [a.u.]:            -75.551817722139845

 ENERGY| Total FORCE_EVAL ( FIST ) energy [a.u.]:            -75.551834058012687

 ENERGY| Total FORCE_EVAL ( FIST ) energy [a.u.]:            -75.551865128065373

 ENERGY| Total FORCE_EVAL ( FIST ) energy [a.u.]:            -75.551907963536877

 ENERGY| Total FORCE_EVAL ( FIST ) energy [a.u.]:            -75.551958661458784

 -------------------------------------------------------------------------------
 -                                                                             -
 -                         MESSAGE PASSING PERFORMANCE                         -
 -                                                                             -
 -------------------------------------------------------------------------------

 ROUTINE             CALLS      AVE VOLUME [Bytes]
 MP_Group                1
 MP_Allreduce          261                   2825.
 MP_Sync                 1
 -------------------------------------------------------------------------------


 -------------------------------------------------------------------------------
 -                                                                             -
 -                           R E F E R E N C E S                               -
 -                                                                             -
 -------------------------------------------------------------------------------
 
 CP2K version 9.1, the CP2K developers group (2021).
 CP2K is freely available from https://www.cp2k.org/ .

 Marek, A; Blum, V; Johanni, R; Havu, V; Lang, B; Auckenthaler, T;
 Heinecke, A; Bungartz, H; Lederer, H. 
 Journal of Physics: Condensed Matter, 26 (21), (2014). 
 The ELPA library: scalable parallel eigenvalue solutions for
 electronic structure
 theory and computational science.
 https://doi.org/10.1088/0953-8984/26/21/213201

 Frigo, M; Johnson, SG. 
 PROCEEDINGS OF THE IEEE, 93 (2), 216-231 (2005). 
 The design and implementation of FFTW3.
 https://doi.org/10.1109/JPROC.2004.840301

 ESSMANN, U; PERERA, L; BERKOWITZ, ML; DARDEN, T; LEE, H; PEDERSEN, LG. 
 JOURNAL OF CHEMICAL PHYSICS, 103 (19), 8577-8593 (1995). 
 A SMOOTH PARTICLE MESH EWALD METHOD.
 https://doi.org/10.1063/1.470117

 FUMI, FG; TOSI, MP. 
 JOURNAL OF PHYSICS AND CHEMISTRY OF SOLIDS, 25 (1), 31-43 (1964). 
 IONIC SIZES + BORN REPULSIVE PARAMETERS IN NACL-TYPE ALKALI HALIDES .I.
 HUGGINS-M
 GENERATE|  Preliminary Number of Bonds generated:                             0
 GENERATE|  Achieved consistency in connectivity generation.
 CHARGE_INFO| Total Charge of the Classical System:                     1.000000

 FORCEFIELD| WARNING: A non Critical ForceField parameter is missing! CP2K GOES!
 FORCEFIELD| Non critical parameters are:Urey-Bradley,Torsions,Impropers, Opbends and 1-4
 FORCEFIELD| All missing parameters will not contribute to the potential energy!
 FORCEFIELD| Activate the print key FF_INFO to have a list of missing parameters


 SPLINE_INFO| Generating 3 splines for NONBONDED14 interactions 
              Due to 2 different atomic kinds
  ...1  ...2  ...3
 SPLINE_INFO| Number of unique splines computed:            1
 SPLINE_INFO| Done

 SPLINE_INFO| Generating 3 splines for NONBONDED interactions 
              Due to 2 different atomic kinds
  ...1  ...2  ...3
 SPLINE_INFO| Number of unique splines computed:            3
 SPLINE_INFO| Done

 ENERGY| Total FORCE_EVAL ( FIST ) energy [a.u.]:            -75.440553813539879

 ENERGY| Total FORCE_EVAL ( FIST ) energy [a.u.]:            -75.459186208897350

 ENERGY| Total FORCE_EVAL ( FIST ) energy [a.u.]:            -75.477443644062362

 ENERGY| Total FORCE_EVAL ( FIST ) energy [a.u.]:            -75.492460420592934

 ENERGY| Total FORCE_EVAL ( FIST ) energy [a.u.]:            -75.504563542624894

 ENERGY| Total FORCE_EVAL ( FIST ) energy [a.u.]:            -75.514046422259526

 ENERGY| Total FORCE_EVAL ( FIST ) energy [a.u.]:            -75.521180719604061

 ENERGY| Total FORCE_EVAL ( FIST ) energy [a.u.]:            -75.526235321839351

 ENERGY| Total FORCE_EVAL ( FIST ) energy [a.u.]:            -75.529510392846987

 ENERGY| Total FORCE_EVAL ( FIST ) energy [a.u.]:            -75.531376393560279

 ENERGY| Total FORCE_EVAL ( FIST ) energy [a.u.]:            -75.532290114450205

 ENERGY| Total FORCE_EVAL ( FIST ) energy [a.u.]:            -75.532729978557910

 ENERGY| Total FORCE_EVAL ( FIST ) energy [a.u.]:            -75.533144074929766

 ENERGY| Total FORCE_EVAL ( FIST ) energy [a.u.]:            -75.533904787466085

 ENERGY| Total FORCE_EVAL ( FIST ) energy [a.u.]:            -75.534891325852399

 ENERGY| Total FORCE_EVAL ( FIST ) energy [a.u.]:            -75.535955130135704

 ENERGY| Total FORCE_EVAL ( FIST ) energy [a.u.]:            -75.536951775055101

 ENERGY| Total FORCE_EVAL ( FIST ) energy [a.u.]:            -75.537773828974053

 ENERGY| Total FORCE_EVAL ( FIST ) energy [a.u.]:            -75.538379398694801

 ENERGY| Total FORCE_EVAL ( FIST ) energy [a.u.]:            -75.538840085211731

 ENERGY| Total FORCE_EVAL ( FIST ) energy [a.u.]:            -75.539223676634435

 ENERGY| Total FORCE_EVAL ( FIST ) energy [a.u.]:            -75.539649986011185

 ENERGY| Total FORCE_EVAL ( FIST ) energy [a.u.]:            -75.540205481974326

 ENERGY| Total FORCE_EVAL ( FIST ) energy [a.u.]:            -75.540848239507469

 ENERGY| Total FORCE_EVAL ( FIST ) energy [a.u.]:            -75.541366392491142

 ENERGY| Total FORCE_EVAL ( FIST ) energy [a.u.]:            -75.541506368982354

 ENERGY| Total FORCE_EVAL ( FIST ) energy [a.u.]:            -75.541526920647428

 ENERGY| Total FORCE_EVAL ( FIST ) energy [a.u.]:            -75.541565820552677

 ENERGY| Total FORCE_EVAL ( FIST ) energy [a.u.]:            -75.541619010104085

 ENERGY| Total FORCE_EVAL ( FIST ) energy [a.u.]:            -75.541681230386388

 -------------------------------------------------------------------------------
 -                                                                             -
 -                         MESSAGE PASSING PERFORMANCE                         -
 -                                                                             -
 -------------------------------------------------------------------------------

 ROUTINE             CALLS      AVE VOLUME [Bytes]
 MP_Group                1
 MP_Allreduce          261                   2825.
 MP_Sync                 1
 -------------------------------------------------------------------------------


 -------------------------------------------------------------------------------
 -                                                                             -
 -                           R E F E R E N C E S                               -
 -                                                                             -
 -------------------------------------------------------------------------------
 
 CP2K version 9.1, the CP2K developers group (2021).
 CP2K is freely available from https://www.cp2k.org/ .

 Marek, A; Blum, V; Johanni, R; Havu, V; Lang, B; Auckenthaler, T;
 Heinecke, A; Bungartz, H; Lederer, H. 
 Journal of Physics: Condensed Matter, 26 (21), (2014). 
 The ELPA library: scalable parallel eigenvalue solutions for
 electronic structure
 theory and computational science.
 https://doi.org/10.1088/0953-8984/26/21/213201

 Frigo, M; Johnson, SG. 
 PROCEEDINGS OF THE IEEE, 93 (2), 216-231 (2005). 
 The design and implementation of FFTW3.
 https://doi.org/10.1109/JPROC.2004.840301

 ESSMANN, U; PERERA, L; BERKOWITZ, ML; DARDEN, T; LEE, H; PEDERSEN, LG. 
 JOURNAL OF CHEMICAL PHYSICS, 103 (19), 8577-8593 (1995). 
 A SMOOTH PARTICLE MESH EWALD METHOD.
 https://doi.org/10.1063/1.470117

 FUMI, FG; TOSI, MP. 
 JOURNAL OF PHYSICS AND CHEMISTRY OF SOLIDS, 25 (1), 31-43 (1964). 
 IONIC SIZES + BORN REPULSIVE PARAMETERS IN NACL-TYPE ALKALI HALIDES .I.
 HUGGINS-M
 GENERATE|  Preliminary Number of Bonds generated:                             0
 GENERATE|  Achieved consistency in connectivity generation.
 CHARGE_INFO| Total Charge of the Classical System:                     1.000000

 FORCEFIELD| WARNING: A non Critical ForceField parameter is missing! CP2K GOES!
 FORCEFIELD| Non critical parameters are:Urey-Bradley,Torsions,Impropers, Opbends and 1-4
 FORCEFIELD| All missing parameters will not contribute to the potential energy!
 FORCEFIELD| Activate the print key FF_INFO to have a list of missing parameters


 SPLINE_INFO| Generating 3 splines for NONBONDED14 interactions 
              Due to 2 different atomic kinds
  ...1  ...2  ...3
 SPLINE_INFO| Number of unique splines computed:            1
 SPLINE_INFO| Done

 SPLINE_INFO| Generating 3 splines for NONBONDED interactions 
              Due to 2 different atomic kinds
  ...1  ...2  ...3
 SPLINE_INFO| Number of unique splines computed:            3
 SPLINE_INFO| Done

 ENERGY| Total FORCE_EVAL ( FIST ) energy [a.u.]:            -75.421012879082980

 ENERGY| Total FORCE_EVAL ( FIST ) energy [a.u.]:            -75.445700802995546

 ENERGY| Total FORCE_EVAL ( FIST ) energy [a.u.]:            -75.468499567651946

 ENERGY| Total FORCE_EVAL ( FIST ) energy [a.u.]:            -75.486181502480918

 ENERGY| Total FORCE_EVAL ( FIST ) energy [a.u.]:            -75.499664350464656

 ENERGY| Total FORCE_EVAL ( FIST ) energy [a.u.]:            -75.509669667114366

 ENERGY| Total FORCE_EVAL ( FIST ) energy [a.u.]:            -75.516784459431278

 ENERGY| Total FORCE_EVAL ( FIST ) energy [a.u.]:            -75.521521407924737

 ENERGY| Total FORCE_EVAL ( FIST ) energy [a.u.]:            -75.524382857296047

 ENERGY| Total FORCE_EVAL ( FIST ) energy [a.u.]:            -75.525918951469706

 ENERGY| Total FORCE_EVAL ( FIST ) energy [a.u.]:            -75.526726866406705

 ENERGY| Total FORCE_EVAL ( FIST ) energy [a.u.]:            -75.527337930683316

 ENERGY| Total FORCE_EVAL ( FIST ) energy [a.u.]:            -75.527815404916211

 ENERGY| Total FORCE_EVAL ( FIST ) energy [a.u.]:            -75.528689976369662

 ENERGY| Total FORCE_EVAL ( FIST ) energy [a.u.]:            -75.529817773894081

 ENERGY| Total FORCE_EVAL ( FIST ) energy [a.u.]:            -75.531022064603832

 ENERGY| Total FORCE_EVAL ( FIST ) energy [a.u.]:            -75.532131727888952

 ENERGY| Total FORCE_EVAL ( FIST ) energy [a.u.]:            -75.533021223806657

 ENERGY| Total FORCE_EVAL ( FIST ) energy [a.u.]:            -75.533645803926575

 ENERGY| Total FORCE_EVAL ( FIST ) energy [a.u.]:            -75.534090033194403

 ENERGY| Total FORCE_EVAL ( FIST ) energy [a.u.]:            -75.534448204894190

 ENERGY| Total FORCE_EVAL ( FIST ) energy [a.u.]:            -75.534874923655622

 ENERGY| Total FORCE_EVAL ( FIST ) energy [a.u.]:            -75.535476206663844

 ENERGY| Total FORCE_EVAL ( FIST ) energy [a.u.]:            -75.536194549019498

 ENERGY| Total FORCE_EVAL ( FIST ) energy [a.u.]:            -75.536767415761716

 ENERGY| Total FORCE_EVAL ( FIST ) energy [a.u.]:            -75.536897911229602

 ENERGY| Total FORCE_EVAL ( FIST ) energy [a.u.]:            -75.536920442944563

 ENERGY| Total FORCE_EVAL ( FIST ) energy [a.u.]:            -75.536962898076794

 ENERGY| Total FORCE_EVAL ( FIST ) energy [a.u.]:            -75.537020485053276

 ENERGY| Total FORCE_EVAL ( FIST ) energy [a.u.]:            -75.537087038957836

 -------------------------------------------------------------------------------
 -                                                                             -
 -                         MESSAGE PASSING PERFORMANCE                         -
 -                                                                             -
 -------------------------------------------------------------------------------

 ROUTINE             CALLS      AVE VOLUME [Bytes]
 MP_Group                1
 MP_Allreduce          261                   2825.
 MP_Sync                 1
 -------------------------------------------------------------------------------


 -------------------------------------------------------------------------------
 -                                                                             -
 -                           R E F E R E N C E S                               -
 -                                                                             -
 -------------------------------------------------------------------------------
 
 CP2K version 9.1, the CP2K developers group (2021).
 CP2K is freely available from https://www.cp2k.org/ .

 Marek, A; Blum, V; Johanni, R; Havu, V; Lang, B; Auckenthaler, T;
 Heinecke, A; Bungartz, H; Lederer, H. 
 Journal of Physics: Condensed Matter, 26 (21), (2014). 
 The ELPA library: scalable parallel eigenvalue solutions for
 electronic structure
 theory and computational science.
 https://doi.org/10.1088/0953-8984/26/21/213201

 Frigo, M; Johnson, SG. 
 PROCEEDINGS OF THE IEEE, 93 (2), 216-231 (2005). 
 The design and implementation of FFTW3.
 https://doi.org/10.1109/JPROC.2004.840301

 ESSMANN, U; PERERA, L; BERKOWITZ, ML; DARDEN, T; LEE, H; PEDERSEN, LG. 
 JOURNAL OF CHEMICAL PHYSICS, 103 (19), 8577-8593 (1995). 
 A SMOOTH PARTICLE MESH EWALD METHOD.
 https://doi.org/10.1063/1.470117

 FUMI, FG; TOSI, MP. 
 JOURNAL OF PHYSICS AND CHEMISTRY OF SOLIDS, 25 (1), 31-43 (1964). 
 IONIC SIZES + BORN REPULSIVE PARAMETERS IN NACL-TYPE ALKALI HALIDES .I.
 HUGGINS-M
 GENERATE|  Preliminary Number of Bonds generated:                             0
 GENERATE|  Achieved consistency in connectivity generation.
 CHARGE_INFO| Total Charge of the Classical System:                     1.000000

 FORCEFIELD| WARNING: A non Critical ForceField parameter is missing! CP2K GOES!
 FORCEFIELD| Non critical parameters are:Urey-Bradley,Torsions,Impropers, Opbends and 1-4
 FORCEFIELD| All missing parameters will not contribute to the potential energy!
 FORCEFIELD| Activate the print key FF_INFO to have a list of missing parameters


 SPLINE_INFO| Generating 3 splines for NONBONDED14 interactions 
              Due to 2 different atomic kinds
  ...1  ...2  ...3
 SPLINE_INFO| Number of unique splines computed:            1
 SPLINE_INFO| Done

 SPLINE_INFO| Generating 3 splines for NONBONDED interactions 
              Due to 2 different atomic kinds
  ...1  ...2  ...3
 SPLINE_INFO| Number of unique splines computed:            3
 SPLINE_INFO| Done

 ENERGY| Total FORCE_EVAL ( FIST ) energy [a.u.]:            -75.440553813539850

 ENERGY| Total FORCE_EVAL ( FIST ) energy [a.u.]:            -75.459186208897322

 ENERGY| Total FORCE_EVAL ( FIST ) energy [a.u.]:            -75.477443644062333

 ENERGY| Total FORCE_EVAL ( FIST ) energy [a.u.]:            -75.492460420592963

 ENERGY| Total FORCE_EVAL ( FIST ) energy [a.u.]:            -75.504563542624950

 ENERGY| Total FORCE_EVAL ( FIST ) energy [a.u.]:            -75.514046422259526

 ENERGY| Total FORCE_EVAL ( FIST ) energy [a.u.]:            -75.521180719604075

 ENERGY| Total FORCE_EVAL ( FIST ) energy [a.u.]:            -75.526235321839380

 ENERGY| Total FORCE_EVAL ( FIST ) energy [a.u.]:            -75.529510392846987

 ENERGY| Total FORCE_EVAL ( FIST ) energy [a.u.]:            -75.531376393560294

 ENERGY| Total FORCE_EVAL ( FIST ) energy [a.u.]:            -75.532290114450234

 ENERGY| Total FORCE_EVAL ( FIST ) energy [a.u.]:            -75.532729978557896

 ENERGY| Total FORCE_EVAL ( FIST ) energy [a.u.]:            -75.533144074929794

 ENERGY| Total FORCE_EVAL ( FIST ) energy [a.u.]:            -75.533904787466142

 ENERGY| Total FORCE_EVAL ( FIST ) energy [a.u.]:            -75.534891325852357

 ENERGY| Total FORCE_EVAL ( FIST ) energy [a.u.]:            -75.535955130135690

 ENERGY| Total FORCE_EVAL ( FIST ) energy [a.u.]:            -75.536951775055087

 ENERGY| Total FORCE_EVAL ( FIST ) energy [a.u.]:            -75.537773828974053

 ENERGY| Total FORCE_EVAL ( FIST ) energy [a.u.]:            -75.538379398694786

 ENERGY| Total FORCE_EVAL ( FIST ) energy [a.u.]:            -75.538840085211703

 ENERGY| Total FORCE_EVAL ( FIST ) energy [a.u.]:            -75.539223676634435

 ENERGY| Total FORCE_EVAL ( FIST ) energy [a.u.]:            -75.539649986011156

 ENERGY| Total FORCE_EVAL ( FIST ) energy [a.u.]:            -75.540205481974340

 ENERGY| Total FORCE_EVAL ( FIST ) energy [a.u.]:            -75.540848239507483

 ENERGY| Total FORCE_EVAL ( FIST ) energy [a.u.]:            -75.541366392491128

 ENERGY| Total FORCE_EVAL ( FIST ) energy [a.u.]:            -75.541506368982297

 ENERGY| Total FORCE_EVAL ( FIST ) energy [a.u.]:            -75.541526920647456

 ENERGY| Total FORCE_EVAL ( FIST ) energy [a.u.]:            -75.541565820552663

 ENERGY| Total FORCE_EVAL ( FIST ) energy [a.u.]:            -75.541619010104071

[...]

 STRESS| Analytical stress tensor [GPa]
 STRESS|                        x                   y                   z
 STRESS|      x        4.00186724833E-02   6.29999640685E-16  -5.71679361445E-16
 STRESS|      y        6.29999640685E-16   5.80432061348E-02  -1.71365799966E-02
 STRESS|      z       -5.71679361445E-16  -1.71365799966E-02   5.80432061348E-02
 STRESS| 1/3 Trace                                             5.20350282510E-02
 STRESS| Determinant                                           1.23071480625E-04

 STRESS| Eigenvectors and eigenvalues of the analytical stress tensor [GPa]
 STRESS|                        1                   2                   3
 STRESS| Eigenvalues   4.00186724833E-02   4.09066261382E-02   7.51797861314E-02
 STRESS|      x           1.000000000000      0.000000000000      0.000000000000
 STRESS|      y          -0.000000000000      0.707106781187      0.707106781187
 STRESS|      z          -0.000000000000      0.707106781187     -0.707106781187

 ENERGY| Total FORCE_EVAL ( FIST ) energy [a.u.]:            -75.548835651827062

 STRESS| Analytical stress tensor [GPa]
 STRESS|                        x                   y                   z
 STRESS|      x        3.98811739777E-02  -1.90334125613E-17   2.27221523876E-17
 STRESS|      y       -1.90334125613E-17   5.79751302910E-02  -1.74914751377E-02
 STRESS|      z        2.27221523876E-17  -1.74914751377E-02   5.79751302910E-02
 STRESS| 1/3 Trace                                             5.19438115199E-02
 STRESS| Determinant                                           1.21843528201E-04

 STRESS| Eigenvectors and eigenvalues of the analytical stress tensor [GPa]
 STRESS|                        1                   2                   3
 STRESS| Eigenvalues   3.98811739777E-02   4.04836551533E-02   7.54666054287E-02
 STRESS|      x           1.000000000000     -0.000000000000      0.000000000000
 STRESS|      y           0.000000000000      0.707106781187     -0.707106781187
 STRESS|      z          -0.000000000000      0.707106781187      0.707106781187

 ENERGY| Total FORCE_EVAL ( FIST ) energy [a.u.]:            -75.549054077641031

 STRESS| Analytical stress tensor [GPa]
 STRESS|                        x                   y                   z
 STRESS|      x        3.97393776964E-02  -2.47140473634E-16  -2.84503426210E-16
 STRESS|      y       -2.47140473634E-16   5.79269592837E-02  -1.79043138604E-02
 STRESS|      z       -2.84503426210E-16  -1.79043138604E-02   5.79269592837E-02
 STRESS| 1/3 Trace                                             5.18644320879E-02
 STRESS| Determinant                                           1.20607745889E-04

 STRESS| Eigenvectors and eigenvalues of the analytical stress tensor [GPa]
 STRESS|                        1                   2                   3
 STRESS| Eigenvalues   3.97393776964E-02   4.00226454233E-02   7.58312731441E-02
 STRESS|      x           1.000000000000     -0.000000000000      0.000000000000
 STRESS|      y           0.000000000000      0.707106781187      0.707106781187
 STRESS|      z           0.000000000000      0.707106781187     -0.707106781187

 ENERGY| Total FORCE_EVAL ( FIST ) energy [a.u.]:            -75.549253151951831

 STRESS| Analytical stress tensor [GPa]
 STRESS|                        x                   y                   z
 STRESS|      x        3.96011716506E-02   2.67650434746E-17   1.14407876908E-17
 STRESS|      y        2.67650434746E-17   5.79100595956E-02  -1.83657744921E-02
483E-16
 STRESS|      y        4.40472069945E-16   4.45394125412E-02  -7.51840826842E-03
 STRESS|      z       -4.19668035483E-16  -7.51840826842E-03   4.45394125412E-02
 STRESS| 1/3 Trace                                             4.21258147695E-02
 STRESS| Determinant                                           7.18831226145E-05

 STRESS| Eigenvectors and eigenvalues of the analytical stress tensor [GPa]
 STRESS|                        1                   2                   3
 STRESS| Eigenvalues   3.70210042728E-02   3.72986192261E-02   5.20578208097E-02
 STRESS|      x           0.000000000000      1.000000000000     -0.000000000000
 STRESS|      y           0.707106781187     -0.000000000000     -0.707106781187
 STRESS|      z           0.707106781187     -0.000000000000      0.707106781187

 ENERGY| Total FORCE_EVAL ( FIST ) energy [a.u.]:            -75.558047767134823

 STRESS| Analytical stress tensor [GPa]
 STRESS|                        x                   y                   z
 STRESS|      x        3.73083305226E-02  -9.43175427836E-16  -9.54271503440E-16
 STRESS|      y       -9.43175427836E-16   4.45304773630E-02  -7.56866418582E-03
 STRESS|      z       -9.54271503440E-16  -7.56866418582E-03   4.45304773630E-02
 STRESS| 1/3 Trace                                             4.21230950829E-02
 STRESS| Determinant                                           7.18438587862E-05

 STRESS| Eigenvectors and eigenvalues of the analytical stress tensor [GPa]
 STRESS|                        1                   2                   3
 STRESS| Eigenvalues   3.69618131772E-02   3.73083305226E-02   5.20991415489E-02
 STRESS|      x          -0.000000000000      1.000000000000     -0.000000000000
 STRESS|      y           0.707106781187      0.000000000000     -0.707106781186
 STRESS|      z           0.707106781186      0.000000000000      0.707106781187

 ENERGY| Total FORCE_EVAL ( FIST ) energy [a.u.]:            -75.558108514400175

 STRESS| Analytical stress tensor [GPa]
 STRESS|                        x                   y                   z
 STRESS|      x        3.73224249950E-02  -4.46536598733E-16  -5.12585049081E-16
 STRESS|      y       -4.46536598733E-16   4.45220896266E-02  -7.63460300910E-03
 STRESS|      z       -5.12585049081E-16  -7.63460300910E-03   4.45220896266E-02
 STRESS| 1/3 Trace                                             4.21222014161E-02
 STRESS| Determinant                                           7.18057070551E-05

 STRESS| Eigenvectors and eigenvalues of the analytical stress tensor [GPa]
 STRESS|                        1                   2                   3
 STRESS| Eigenvalues   3.68874866175E-02   3.73224249950E-02   5.21566926357E-02
 STRESS|      x          -0.000000000000      1.000000000000      0.000000000000
 STRESS|      y           0.707106781186      0.000000000000      0.707106781187
 STRESS|      z           0.707106781187      0.000000000000     -0.707106781186

 ENERGY| Total FORCE_EVAL ( FIST ) energy [a.u.]:            -75.558175243939530

 STRESS| Analytical stress tensor [GPa]
 STRESS|                        x                   y                   z
 STRESS|      x        3.73415680422E-02   3.62325419551E-16   2.98998320768E-16
 STRESS|      y        3.62325419551E-16   4.45166606682E-02  -7.71518119141E-03
 STRESS|      z        2.98998320768E-16  -7.71518119141E-03   4.45166606682E-02
 STRESS| 1/3 Trace                                             4.21249631262E-02
 STRESS| Determinant                                           7.17783002644E-05

 STRESS| Eigenvectors and eigenvalues of the analytical stress tensor [GPa]
 STRESS|                        1                   2                   3
 STRESS| Eigenvalues   3.68014794767E-02   3.73415680422E-02   5.22318418596E-02
 STRESS|      x           0.000000000000      1.000000000000      0.000000000000
 STRESS|      y           0.707106781187     -0.000000000000     -0.707106781186
 STRESS|      z           0.707106781186     -0.000000000000      0.707106781187

 ENERGY| Total FORCE_EVAL ( FIST ) energy [a.u.]:            -75.558243368645932

 STRESS| Analytical stress tensor [GPa]
 STRESS|                        x                   y                   z
 STRESS|      x        3.73662618216E-02  -5.53209554030E-17   6.35657452872E-17
 STRESS|      y       -5.53209554030E-17   4.45165468533E-02  -7.80892306244E-03
 STRESS|      z        6.35657452872E-17  -7.80892306244E-03   4.45165468533E-02
 STRESS| 1/3 Trace                                             4.21331185094E-02
 STRESS| Determinant                                           7.17710106541E-05

 STRESS| Eigenvectors and eigenvalues of the analytical stress tensor [GPa]
 STRESS|                        1                   2                   3
 STRESS| Eigenvalues   3.67076237909E-02   3.73662618216E-02   5.23254699157E-02
 STRESS|      x          -0.000000000000      1.000000000000     -0.000000000000
 STRESS|      y           0.707106781186      0.000000000000      0.707106781187
 STRESS|      z           0.707106781187     -0.000000000000     -0.707106781186

 ENERGY| Total FORCE_EVAL ( FIST ) energy [a.u.]:            -75.558308710466733

 STRESS| Analytical stress tensor [GPa]
 STRESS|                        x                   y                   z
 STRESS|      x        3.73966759809E-02   6.87283011872E-17   3.39598582274E-17
 STRESS|      y        6.87283011872E-17   4.45237201193E-02  -7.91376444774E-03

  **** **** ******  **  PROGRAM STARTED AT               2024-11-06 14:55:17.095
 ***** ** ***  *** **   PROGRAM STARTED ON                       BOOK-4GL9QDET17
 **    ****   ******    PROGRAM STARTED BY                                 mattw
 ***** **    ** ** **   PROGRAM PROCESS ID                                 25824
  **** **  *******  **  PROGRAM STARTED IN             /home/mattw/work/NEB/NaCl

 CP2K| version string:                                          CP2K version 9.1
 CP2K| source code revision number:                                  git:d8d7100
 CP2K| cp2kflags: omp libint fftw3 libxc elpa parallel mpi3 scalapack spglib    
 CP2K| is freely available from                            https://www.cp2k.org/
 CP2K| Program compiled at                          Sun Jan  9 17:14:22 UTC 2022
 CP2K| Program compiled on                                       lcy02-amd64-025
 CP2K| Program compiled for                                Linux-x86_64-gfortran
 CP2K| Data directory path                                       /usr/share/cp2k
 CP2K| Input file name                                              NaCl_vac.inp

 GLOBAL| Force Environment number                                              1
 GLOBAL| Basis set file name                                        BASIS_MOLOPT
 GLOBAL| Potential file name                                           POTENTIAL
 GLOBAL| MM Potential file name                                     MM_POTENTIAL
 GLOBAL| Coordinate file name                                      __STD_INPUT__
 GLOBAL| Method name                                                        CP2K
 GLOBAL| Project name                                                   NaCl_vac
 GLOBAL| Run type                                                   ENERGY_FORCE
 GLOBAL| FFT library                                                       FFTW3
 GLOBAL| Diagonalization library                                            ELPA
 GLOBAL| Minimum number of eigenvectors for ELPA usage                        16
 GLOBAL| Orthonormality check for eigenvectors                          DISABLED
 GLOBAL| Matrix multiplication library                                 ScaLAPACK
 GLOBAL| All-to-all communication in single precision                          F
 GLOBAL| FFTs using library dependent lengths                                  F
 GLOBAL| Grid backend                                                       AUTO
 GLOBAL| Global print level                                                  LOW
 GLOBAL| MPI I/O enabled                                                       T
 GLOBAL| Total number of message passing processes                             1
 GLOBAL| Number of threads for this process                                   16
 GLOBAL| This output is from process                                           0
 GLOBAL| Stack size for threads created by OpenMP (OMP_STACKSIZE)        default
 GLOBAL| CPU model name                      12th Gen Intel(R) Core(TM) i7-1260P

 MEMORY| system memory details [Kb]
 MEMORY|                        rank 0           min           max       average
 MEMORY| MemTotal             12251484      12251484      12251484      12251484
 MEMORY| MemFree               6117516       6117516       6117516       6117516
 MEMORY| Buffers                 13372         13372         13372         13372
 MEMORY| Cached                 540652        540652        540652        540652
 MEMORY| Slab                   249652        249652        249652        249652
 MEMORY| SReclaimable           163636        163636        163636        163636
 MEMORY| MemLikelyFree         6835176       6835176       6835176       6835176



                      ************* ******** ***********   
                     ************* **********************  
                     ****     **** ****      ***********   
                     ******** ****  *******     ****       
                     *******  ****   *******   ****        
                     ****     ****       ****  ****        
                     ****     **** **********  ****        
                      ****     **** ********    ****       
                     FRONTIERS IN SIMULATION TECHNOLOGY    
                                                           
                        C.J. Mundy, S. Balasubramanian,    
                     Ken Bagchi, J. Hutter, Ari Seitsonen  
                      IFW Kuo, T. Laino, J. VandeVondele   
                                 Version 1.0               

                                                           


 *** WARNING in cell_methods.F:140 :: Cell Information provided through    ***
 *** vectors A, B and C in conjunction with ABC. The definition of the ABC ***
 *** keyword will override the one provided by A,B and C.                  ***


 EWALD| Summation is done by:                                               SPME
 EWALD| Alpha parameter [       ANGSTROM^-1]                              0.5000
 EWALD| Real Space Cutoff [          ANGSTROM]                            6.7478
 EWALD| G-space max. Miller index                         40        40        40
 EWALD| Spline interpolation order                                             6

 *** WARNING in cell_methods.F:140 :: Cell Information provided through    ***
 *** vectors A, B and C in conjunction with ABC. The definition of the ABC ***
 *** keyword will override the one provided by A,B and C.                  ***


  **** **** ******  **  PROGRAM STARTED AT               2024-11-06 14:55:21.371
 ***** ** ***  *** **   PROGRAM STARTED ON                       BOOK-4GL9QDET17
 **    ****   ******    PROGRAM STARTED BY                                 mattw
 ***** **    ** ** **   PROGRAM PROCESS ID                                 26008
  **** **  *******  **  PROGRAM STARTED IN             /home/mattw/work/NEB/NaCl

 CP2K| version string:                                          CP2K version 9.1
 CP2K| source code revision number:                                  git:d8d7100
 CP2K| cp2kflags: omp libint fftw3 libxc elpa parallel mpi3 scalapack spglib    
 CP2K| is freely available from                            https://www.cp2k.org/
 CP2K| Program compiled at                          Sun Jan  9 17:14:22 UTC 2022
 CP2K| Program compiled on                                       lcy02-amd64-025
 CP2K| Program compiled for                                Linux-x86_64-gfortran
 CP2K| Data directory path                                       /usr/share/cp2k
 CP2K| Input file name                                              NaCl_vac.inp

 GLOBAL| Force Environment number                                              1
 GLOBAL| Basis set file name                                        BASIS_MOLOPT
 GLOBAL| Potential file name                                           POTENTIAL
 GLOBAL| MM Potential file name                                     MM_POTENTIAL
 GLOBAL| Coordinate file name                                      __STD_INPUT__
 GLOBAL| Method name                                                        CP2K
 GLOBAL| Project name                                                   NaCl_vac
 GLOBAL| Run type                                                   ENERGY_FORCE
 GLOBAL| FFT library                                                       FFTW3
 GLOBAL| Diagonalization library                                            ELPA
 GLOBAL| Minimum number of eigenvectors for ELPA usage                        16
 GLOBAL| Orthonormality check for eigenvectors                          DISABLED
 GLOBAL| Matrix multiplication library                                 ScaLAPACK
 GLOBAL| All-to-all communication in single precision                          F
 GLOBAL| FFTs using library dependent lengths                                  F
 GLOBAL| Grid backend                                                       AUTO
 GLOBAL| Global print level                                                  LOW
 GLOBAL| MPI I/O enabled                                                       T
 GLOBAL| Total number of message passing processes                             1
 GLOBAL| Number of threads for this process                                   16
 GLOBAL| This output is from process                                           0
 GLOBAL| Stack size for threads created by OpenMP (OMP_STACKSIZE)        default
 GLOBAL| CPU model name                      12th Gen Intel(R) Core(TM) i7-1260P

 MEMORY| system memory details [Kb]
 MEMORY|                        rank 0           min           max       average
 MEMORY| MemTotal             12251484      12251484      12251484      12251484
 MEMORY| MemFree               6108068       6108068       6108068       6108068
 MEMORY| Buffers                 13372         13372         13372         13372
 MEMORY| Cached                 540652        540652        540652        540652
 MEMORY| Slab                   249652        249652        249652        249652
 MEMORY| SReclaimable           163636        163636        163636        163636
 MEMORY| MemLikelyFree         6825728       6825728       6825728       6825728



                      ************* ******** ***********   
                     ************* **********************  
                     ****     **** ****      ***********   
                     ******** ****  *******     ****       
                     *******  ****   *******   ****        
                     ****     ****       ****  ****        
                     ****     **** **********  ****        
                      ****     **** ********    ****       
                     FRONTIERS IN SIMULATION TECHNOLOGY    
                                                           
                        C.J. Mundy, S. Balasubramanian,    
                     Ken Bagchi, J. Hutter, Ari Seitsonen  
                      IFW Kuo, T. Laino, J. VandeVondele   
                                 Version 1.0               

                                                           


 *** WARNING in cell_methods.F:140 :: Cell Information provided through    ***
 *** vectors A, B and C in conjunction with ABC. The definition of the ABC ***
 *** keyword will override the one provided by A,B and C.                  ***


 EWALD| Summation is done by:                                               SPME
 EWALD| Alpha parameter [       ANGSTROM^-1]                              0.5000
 EWALD| Real Space Cutoff [          ANGSTROM]                            6.7478
 EWALD| G-space max. Miller index                         40        40        40
 EWALD| Spline interpolation order                                             6

 *** WARNING in cell_methods.F:140 :: Cell Information provided through    ***
 *** vectors A, B and C in conjunction with ABC. The definition of the ABC ***
 *** keyword will override the one provided by A,B and C.                  ***

