
  **** **** ******  **  PROGRAM STARTED AT               2024-11-05 13:10:55.550
 ***** ** ***  *** **   PROGRAM STARTED ON                       BOOK-4GL9QDET17
 **    ****   ******    PROGRAM STARTED BY                                 mattw
 ***** **    ** ** **   PROGRAM PROCESS ID                                 20183
  **** **  *******  **  PROGRAM STARTED IN             /home/mattw/work/NEB/NaCl

 CP2K| version string:                                          CP2K version 9.1
 CP2K| source code revision number:                                  git:d8d7100
 CP2K| cp2kflags: omp libint fftw3 libxc elpa parallel mpi3 scalapack spglib    
 CP2K| is freely available from                            https://www.cp2k.org/
 CP2K| Program compiled at                          Sun Jan  9 17:14:22 UTC 2022
 CP2K| Program compiled on                                       lcy02-amd64-025
 CP2K| Program compiled for                                Linux-x86_64-gfortran
 CP2K| Data directory path                                       /usr/share/cp2k
 CP2K| Input file name                                           test_H2_inp.inp

 GLOBAL| Force Environment number                                              1
 GLOBAL| Basis set file name                                           BASIS_SET
 GLOBAL| Potential file name                                           POTENTIAL
 GLOBAL| MM Potential file name                                     MM_POTENTIAL
 GLOBAL| Coordinate file name                             ../sample_pdb/NaCl.pdb
 GLOBAL| Method name                                                        CP2K
 GLOBAL| Project name                                                test_H2_inp
 GLOBAL| Run type                                                   ENERGY_FORCE
 GLOBAL| FFT library                                                       FFTW3
 GLOBAL| Diagonalization library                                            ELPA
 GLOBAL| Minimum number of eigenvectors for ELPA usage                        16
 GLOBAL| Orthonormality check for eigenvectors                          DISABLED
 GLOBAL| Matrix multiplication library                                 ScaLAPACK
 GLOBAL| All-to-all communication in single precision                          F
 GLOBAL| FFTs using library dependent lengths                                  F
 GLOBAL| Grid backend                                                       AUTO
 GLOBAL| Global print level                                                  LOW
 GLOBAL| MPI I/O enabled                                                       T
 GLOBAL| Total number of message passing processes                             1
 GLOBAL| Number of threads for this process                                   16
 GLOBAL| This output is from process                                           0
 GLOBAL| Stack size for threads created by OpenMP (OMP_STACKSIZE)        default
 GLOBAL| CPU model name                      12th Gen Intel(R) Core(TM) i7-1260P

 MEMORY| system memory details [Kb]
 MEMORY|                        rank 0           min           max       average
 MEMORY| MemTotal             12251484      12251484      12251484      12251484
 MEMORY| MemFree                164476        164476        164476        164476
 MEMORY| Buffers                 11272         11272         11272         11272
 MEMORY| Cached                 196536        196536        196536        196536
 MEMORY| Slab                   226808        226808        226808        226808
 MEMORY| SReclaimable           157512        157512        157512        157512
 MEMORY| MemLikelyFree          529796        529796        529796        529796



                      ************* ******** ***********   
                     ************* **********************  
                     ****     **** ****      ***********   
                     ******** ****  *******     ****       
                     *******  ****   *******   ****        
                     ****     ****       ****  ****        
                     ****     **** **********  ****        
                      ****     **** ********    ****       
                     FRONTIERS IN SIMULATION TECHNOLOGY    
                                                           
                        C.J. Mundy, S. Balasubramanian,    
                     Ken Bagchi, J. Hutter, Ari Seitsonen  
                      IFW Kuo, T. Laino, J. VandeVondele   
                                 Version 1.0               

                                                           


 *** WARNING in cell_methods.F:140 :: Cell Information provided through    ***
 *** vectors A, B and C in conjunction with ABC. The definition of the ABC ***
 *** keyword will override the one provided by A,B and C.                  ***


 EWALD| Summation is done by:                                               SPME
 EWALD| Alpha parameter [       ANGSTROM^-1]                              0.5000
 EWALD| Real Space Cutoff [          ANGSTROM]                            6.7478
 EWALD| G-space max. Miller index                         40        40        40
 EWALD| Spline interpolation order                                             6

 *** WARNING in cell_methods.F:140 :: Cell Information provided through    ***
 *** vectors A, B and C in conjunction with ABC. The definition of the ABC ***
 *** keyword will override the one provided by A,B and C.                  ***


 *******************************************************************************
 *   ___                                                                       *
 *  /   \                                                                      *
 * [ABORT]                                                                     *
 *  \___/           Coordinate file <../sample_pdb/NaCl.pdb> not found.        *
 *    |                                                                        *
 *  O/|                                                                        *
 * /| |                                                                        *
 * / \                                                          topology.F:553 *
 *******************************************************************************


 ===== Routine Calling Stack ===== 

            5 coordinate_control
            4 topology_control
            3 fist_init
            2 fist_create_force_env
            1 CP2K

  **** **** ******  **  PROGRAM STARTED AT               2024-11-05 13:11:26.552
 ***** ** ***  *** **   PROGRAM STARTED ON                       BOOK-4GL9QDET17
 **    ****   ******    PROGRAM STARTED BY                                 mattw
 ***** **    ** ** **   PROGRAM PROCESS ID                                 20324
  **** **  *******  **  PROGRAM STARTED IN             /home/mattw/work/NEB/NaCl

 CP2K| version string:                                          CP2K version 9.1
 CP2K| source code revision number:                                  git:d8d7100
 CP2K| cp2kflags: omp libint fftw3 libxc elpa parallel mpi3 scalapack spglib    
 CP2K| is freely available from                            https://www.cp2k.org/
 CP2K| Program compiled at                          Sun Jan  9 17:14:22 UTC 2022
 CP2K| Program compiled on                                       lcy02-amd64-025
 CP2K| Program compiled for                                Linux-x86_64-gfortran
 CP2K| Data directory path                                       /usr/share/cp2k
 CP2K| Input file name                                           test_H2_inp.inp

 GLOBAL| Force Environment number                                              1
 GLOBAL| Basis set file name                                           BASIS_SET
 GLOBAL| Potential file name                                           POTENTIAL
 GLOBAL| MM Potential file name                                     MM_POTENTIAL
 GLOBAL| Coordinate file name                             ../sample_pdb/NaCl.pdb
 GLOBAL| Method name                                                        CP2K
 GLOBAL| Project name                                                test_H2_inp
 GLOBAL| Run type                                                   ENERGY_FORCE
 GLOBAL| FFT library                                                       FFTW3
 GLOBAL| Diagonalization library                                            ELPA
 GLOBAL| Minimum number of eigenvectors for ELPA usage                        16
 GLOBAL| Orthonormality check for eigenvectors                          DISABLED
 GLOBAL| Matrix multiplication library                                 ScaLAPACK
 GLOBAL| All-to-all communication in single precision                          F
 GLOBAL| FFTs using library dependent lengths                                  F
 GLOBAL| Grid backend                                                       AUTO
 GLOBAL| Global print level                                                  LOW
 GLOBAL| MPI I/O enabled                                                       T
 GLOBAL| Total number of message passing processes                             1
 GLOBAL| Number of threads for this process                                   16
 GLOBAL| This output is from process                                           0
 GLOBAL| Stack size for threads created by OpenMP (OMP_STACKSIZE)        default
 GLOBAL| CPU model name                      12th Gen Intel(R) Core(TM) i7-1260P

 MEMORY| system memory details [Kb]
 MEMORY|                        rank 0           min           max       average
 MEMORY| MemTotal             12251484      12251484      12251484      12251484
 MEMORY| MemFree                142336        142336        142336        142336
 MEMORY| Buffers                 11444         11444         11444         11444
 MEMORY| Cached                 198036        198036        198036        198036
 MEMORY| Slab                   221168        221168        221168        221168
 MEMORY| SReclaimable           157528        157528        157528        157528
 MEMORY| MemLikelyFree          509344        509344        509344        509344



                      ************* ******** ***********   
                     ************* **********************  
                     ****     **** ****      ***********   
                     ******** ****  *******     ****       
                     *******  ****   *******   ****        
                     ****     ****       ****  ****        
                     ****     **** **********  ****        
                      ****     **** ********    ****       
                     FRONTIERS IN SIMULATION TECHNOLOGY    
                                                           
                        C.J. Mundy, S. Balasubramanian,    
                     Ken Bagchi, J. Hutter, Ari Seitsonen  
                      IFW Kuo, T. Laino, J. VandeVondele   
                                 Version 1.0               

                                                           


 *** WARNING in cell_methods.F:140 :: Cell Information provided through    ***
 *** vectors A, B and C in conjunction with ABC. The definition of the ABC ***
 *** keyword will override the one provided by A,B and C.                  ***


 EWALD| Summation is done by:                                               SPME
 EWALD| Alpha parameter [       ANGSTROM^-1]                              0.5000
 EWALD| Real Space Cutoff [          ANGSTROM]                            6.7478
 EWALD| G-space max. Miller index                         40        40        40
 EWALD| Spline interpolation order                                             6

 *** WARNING in cell_methods.F:140 :: Cell Information provided through    ***
 *** vectors A, B and C in conjunction with ABC. The definition of the ABC ***
 *** keyword will override the one provided by A,B and C.                  ***


 *******************************************************************************
 *   ___                                                                       *
 *  /   \                                                                      *
 * [ABORT]                                                                     *
 *  \___/           Coordinate file <../sample_pdb/NaCl.pdb> not found.        *
 *    |                                                                        *
 *  O/|                                                                        *
 * /| |                                                                        *
 * / \                                                          topology.F:553 *
 *******************************************************************************


 ===== Routine Calling Stack ===== 

            5 coordinate_control
            4 topology_control
            3 fist_init
            2 fist_create_force_env
            1 CP2K

  **** **** ******  **  PROGRAM STARTED AT               2024-11-05 13:11:46.523
 ***** ** ***  *** **   PROGRAM STARTED ON                       BOOK-4GL9QDET17
 **    ****   ******    PROGRAM STARTED BY                                 mattw
 ***** **    ** ** **   PROGRAM PROCESS ID                                 20411
  **** **  *******  **  PROGRAM STARTED IN             /home/mattw/work/NEB/NaCl

 CP2K| version string:                                          CP2K version 9.1
 CP2K| source code revision number:                                  git:d8d7100
 CP2K| cp2kflags: omp libint fftw3 libxc elpa parallel mpi3 scalapack spglib    
 CP2K| is freely available from                            https://www.cp2k.org/
 CP2K| Program compiled at                          Sun Jan  9 17:14:22 UTC 2022
 CP2K| Program compiled on                                       lcy02-amd64-025
 CP2K| Program compiled for                                Linux-x86_64-gfortran
 CP2K| Data directory path                                       /usr/share/cp2k
 CP2K| Input file name                                           test_H2_inp.inp

 GLOBAL| Force Environment number                                              1
 GLOBAL| Basis set file name                                           BASIS_SET
 GLOBAL| Potential file name                                           POTENTIAL
 GLOBAL| MM Potential file name                                     MM_POTENTIAL
 GLOBAL| Coordinate file name                             ../sample_pdb/NaCl.pdb
 GLOBAL| Method name                                                        CP2K
 GLOBAL| Project name                                                test_H2_inp
 GLOBAL| Run type                                                   ENERGY_FORCE
 GLOBAL| FFT library                                                       FFTW3
 GLOBAL| Diagonalization library                                            ELPA
 GLOBAL| Minimum number of eigenvectors for ELPA usage                        16
 GLOBAL| Orthonormality check for eigenvectors                          DISABLED
 GLOBAL| Matrix multiplication library                                 ScaLAPACK
 GLOBAL| All-to-all communication in single precision                          F
 GLOBAL| FFTs using library dependent lengths                                  F
 GLOBAL| Grid backend                                                       AUTO
 GLOBAL| Global print level                                                  LOW
 GLOBAL| MPI I/O enabled                                                       T
 GLOBAL| Total number of message passing processes                             1
 GLOBAL| Number of threads for this process                                   16
 GLOBAL| This output is from process                                           0
 GLOBAL| Stack size for threads created by OpenMP (OMP_STACKSIZE)        default
 GLOBAL| CPU model name                      12th Gen Intel(R) Core(TM) i7-1260P

 MEMORY| system memory details [Kb]
 MEMORY|                        rank 0           min           max       average
 MEMORY| MemTotal             12251484      12251484      12251484      12251484
 MEMORY| MemFree                139372        139372        139372        139372
 MEMORY| Buffers                  2840          2840          2840          2840
 MEMORY| Cached                  39024         39024         39024         39024
 MEMORY| Slab                   205184        205184        205184        205184
 MEMORY| SReclaimable           141788        141788        141788        141788
 MEMORY| MemLikelyFree          323024        323024        323024        323024



                      ************* ******** ***********   
                     ************* **********************  
                     ****     **** ****      ***********   
                     ******** ****  *******     ****       
                     *******  ****   *******   ****        
                     ****     ****       ****  ****        
                     ****     **** **********  ****        
                      ****     **** ********    ****       
                     FRONTIERS IN SIMULATION TECHNOLOGY    
                                                           
                        C.J. Mundy, S. Balasubramanian,    
                     Ken Bagchi, J. Hutter, Ari Seitsonen  
                      IFW Kuo, T. Laino, J. VandeVondele   
                                 Version 1.0               

                                                           


 *** WARNING in cell_methods.F:140 :: Cell Information provided through    ***
 *** vectors A, B and C in conjunction with ABC. The definition of the ABC ***
 *** keyword will override the one provided by A,B and C.                  ***


 EWALD| Summation is done by:                                               SPME
 EWALD| Alpha parameter [       ANGSTROM^-1]                              0.5000
 EWALD| Real Space Cutoff [          ANGSTROM]                            6.7478
 EWALD| G-space max. Miller index                         40        40        40
 EWALD| Spline interpolation order                                             6

 *** WARNING in cell_methods.F:140 :: Cell Information provided through    ***
 *** vectors A, B and C in conjunction with ABC. The definition of the ABC ***
 *** keyword will override the one provided by A,B and C.                  ***


 *******************************************************************************
 *   ___                                                                       *
 *  /   \                                                                      *
 * [ABORT]                                                                     *
 *  \___/           Coordinate file <../sample_pdb/NaCl.pdb> not found.        *
 *    |                                                                        *
 *  O/|                                                                        *
 * /| |                                                                        *
 * / \                                                          topology.F:553 *
 *******************************************************************************


 ===== Routine Calling Stack ===== 

            5 coordinate_control
            4 topology_control
            3 fist_init
            2 fist_create_force_env
            1 CP2K

  **** **** ******  **  PROGRAM STARTED AT               2024-11-05 13:13:27.902
 ***** ** ***  *** **   PROGRAM STARTED ON                       BOOK-4GL9QDET17
 **    ****   ******    PROGRAM STARTED BY                                 mattw
 ***** **    ** ** **   PROGRAM PROCESS ID                                 20818
  **** **  *******  **  PROGRAM STARTED IN             /home/mattw/work/NEB/NaCl

 CP2K| version string:                                          CP2K version 9.1
 CP2K| source code revision number:                                  git:d8d7100
 CP2K| cp2kflags: omp libint fftw3 libxc elpa parallel mpi3 scalapack spglib    
 CP2K| is freely available from                            https://www.cp2k.org/
 CP2K| Program compiled at                          Sun Jan  9 17:14:22 UTC 2022
 CP2K| Program compiled on                                       lcy02-amd64-025
 CP2K| Program compiled for                                Linux-x86_64-gfortran
 CP2K| Data directory path                                       /usr/share/cp2k
 CP2K| Input file name                                           test_H2_inp.inp

 GLOBAL| Force Environment number                                              1
 GLOBAL| Basis set file name                                           BASIS_SET
 GLOBAL| Potential file name                                           POTENTIAL
 GLOBAL| MM Potential file name                                     MM_POTENTIAL
 GLOBAL| Coordinate file name                                           NaCl.pdb
 GLOBAL| Method name                                                        CP2K
 GLOBAL| Project name                                                test_H2_inp
 GLOBAL| Run type                                                   ENERGY_FORCE
 GLOBAL| FFT library                                                       FFTW3
 GLOBAL| Diagonalization library                                            ELPA
 GLOBAL| Minimum number of eigenvectors for ELPA usage                        16
 GLOBAL| Orthonormality check for eigenvectors                          DISABLED
 GLOBAL| Matrix multiplication library                                 ScaLAPACK
 GLOBAL| All-to-all communication in single precision                          F
 GLOBAL| FFTs using library dependent lengths                                  F
 GLOBAL| Grid backend                                                       AUTO
 GLOBAL| Global print level                                                  LOW
 GLOBAL| MPI I/O enabled                                                       T
 GLOBAL| Total number of message passing processes                             1
 GLOBAL| Number of threads for this process                                   16
 GLOBAL| This output is from process                                           0
 GLOBAL| Stack size for threads created by OpenMP (OMP_STACKSIZE)        default
 GLOBAL| CPU model name                      12th Gen Intel(R) Core(TM) i7-1260P

 MEMORY| system memory details [Kb]
 MEMORY|                        rank 0           min           max       average
 MEMORY| MemTotal             12251484      12251484      12251484      12251484
 MEMORY| MemFree                658992        658992        658992        658992
 MEMORY| Buffers                 16540         16540         16540         16540
 MEMORY| Cached                 116648        116648        116648        116648
 MEMORY| Slab                   205404        205404        205404        205404
 MEMORY| SReclaimable           142072        142072        142072        142072
 MEMORY| MemLikelyFree          934252        934252        934252        934252



                      ************* ******** ***********   
                     ************* **********************  
                     ****     **** ****      ***********   
                     ******** ****  *******     ****       
                     *******  ****   *******   ****        
                     ****     ****       ****  ****        
                     ****     **** **********  ****        
                      ****     **** ********    ****       
                     FRONTIERS IN SIMULATION TECHNOLOGY    
                                                           
                        C.J. Mundy, S. Balasubramanian,    
                     Ken Bagchi, J. Hutter, Ari Seitsonen  
                      IFW Kuo, T. Laino, J. VandeVondele   
                                 Version 1.0               

                                                           


 *** WARNING in cell_methods.F:140 :: Cell Information provided through    ***
 *** vectors A, B and C in conjunction with ABC. The definition of the ABC ***
 *** keyword will override the one provided by A,B and C.                  ***


 EWALD| Summation is done by:                                               SPME
 EWALD| Alpha parameter [       ANGSTROM^-1]                              0.5000
 EWALD| Real Space Cutoff [          ANGSTROM]                            6.7478
 EWALD| G-space max. Miller index                         40        40        40
 EWALD| Spline interpolation order                                             6

 *** WARNING in cell_methods.F:140 :: Cell Information provided through    ***
 *** vectors A, B and C in conjunction with ABC. The definition of the ABC ***
 *** keyword will override the one provided by A,B and C.                  ***


 *** WARNING in atoms_input.F:123 :: Overwriting coordinates. Active    ***
 *** coordinates read from &COORD section. Active coordinates READ from ***
 *** &COORD section                                                     ***


 GENERATE|  Preliminary Number of Bonds generated:                             0
 GENERATE|  Achieved consistency in connectivity generation.
 CHARGE_INFO| Total Charge of the Classical System:                     0.000000

 FORCEFIELD| WARNING: A non Critical ForceField parameter is missing! CP2K GOES!
 FORCEFIELD| Non critical parameters are:Urey-Bradley,Torsions,Impropers, Opbends and 1-4
 FORCEFIELD| All missing parameters will not contribute to the potential energy!
 FORCEFIELD| Activate the print key FF_INFO to have a list of missing parameters


 SPLINE_INFO| Generating 3 splines for NONBONDED14 interactions 
              Due to 2 different atomic kinds
  ...1  ...2  ...3
 SPLINE_INFO| Number of unique splines computed:            1
 SPLINE_INFO| Done

 SPLINE_INFO| Generating 3 splines for NONBONDED interactions 
              Due to 2 different atomic kinds
  ...1  ...2  ...3
 SPLINE_INFO| Number of unique splines computed:            3
 SPLINE_INFO| Done

 ENERGY| Total FORCE_EVAL ( FIST ) energy [a.u.]:            -75.751997555078106

 -------------------------------------------------------------------------------
 -                                                                             -
 -                         MESSAGE PASSING PERFORMANCE                         -
 -                                                                             -
 -------------------------------------------------------------------------------

 ROUTINE             CALLS      AVE VOLUME [Bytes]
 MP_Group                1
 MP_Allreduce           29                    855.
 MP_Sync                 1
 -------------------------------------------------------------------------------


 -------------------------------------------------------------------------------
 -                                                                             -
 -                           R E F E R E N C E S                               -
 -                                                                             -
 -------------------------------------------------------------------------------
 
 CP2K version 9.1, the CP2K developers group (2021).
 CP2K is freely available from https://www.cp2k.org/ .

 Marek, A; Blum, V; Johanni, R; Havu, V; Lang, B; Auckenthaler, T;
 Heinecke, A; Bungartz, H; Lederer, H. 
 Journal of Physics: Condensed Matter, 26 (21), (2014). 
 The ELPA library: scalable parallel eigenvalue solutions for
 electronic structure
 theory and computational science.
 https://doi.org/10.1088/0953-8984/26/21/213201

 Frigo, M; Johnson, SG. 
 PROCEEDINGS OF THE IEEE, 93 (2), 216-231 (2005). 
 The design and implementation of FFTW3.
 https://doi.org/10.1109/JPROC.2004.840301

 ESSMANN, U; PERERA, L; BERKOWITZ, ML; DARDEN, T; LEE, H; PEDERSEN, LG. 
 JOURNAL OF CHEMICAL PHYSICS, 103 (19), 8577-8593 (1995). 
 A SMOOTH PARTICLE MESH EWALD METHOD.
 https://doi.org/10.1063/1.470117

 FUMI, FG; TOSI, MP. 
 JOURNAL OF PHYSICS AND CHEMISTRY OF SOLIDS, 25 (1), 31-43 (1964). 
 IONIC SIZES + BORN REPULSIVE PARAMETERS IN NACL-TYPE ALKALI HALIDES .I.
 HUGGINS-MAYER + PAULING FORMS.
 https://doi.org/10.1016/0022-3697(64)90159-3

 TOSI, MP; FUMI, FG. 
 JOURNAL OF PHYSICS AND CHEMISTRY OF SOLIDS, 25 (1), 45-52 (1964). 
 IONIC SIZES + BORN REPULSIVE PARAMETERS IN NACL-TYPE ALKALI HALIDES .2.
 GENERALIZED.
 https://doi.org/10.1016/0022-3697(64)90160-X


 -------------------------------------------------------------------------------
 -                                                                             -
 -                                T I M I N G                                  -
 -                                                                             -
 -------------------------------------------------------------------------------
 SUBROUTINE                       CALLS  ASD         SELF TIME        TOTAL TIME
                                MAXIMUM       AVERAGE  MAXIMUM  AVERAGE  MAXIMUM
 CP2K                                 1  1.0    0.048    0.048    3.818    3.818
 fist_calc_energy_force               1  2.0    0.034    0.034    3.387    3.387
 force_nonbond                        1  3.0    2.166    2.166    2.166    2.166
 spme_evaluate                        1  3.0    0.005    0.005    1.169    1.169
 pw_transfer                          9  4.6    0.003    0.003    0.827    0.827
 fft3d_s                              5  6.0    0.424    0.424    0.711    0.711
 fft_wrap_pw1pw2                      4  5.0    0.000    0.000    0.704    0.704
 fft_wrap_pw1pw2_10                   4  6.0    0.102    0.102    0.704    0.704
 pw_poisson_solve                     1  4.0    0.000    0.000    0.403    0.403
 get_fft_scratch                      5  7.0    0.287    0.287    0.287    0.287
 pw_copy                              8  5.6    0.218    0.218    0.218    0.218
 pw_derive                            3  5.0    0.173    0.173    0.173    0.173
 pw_scatter_s                         3  7.0    0.115    0.115    0.115    0.115
 fist_create_force_env                1  2.0    0.001    0.001    0.107    0.107
 fist_init                            1  3.0    0.001    0.001    0.107    0.107
 -------------------------------------------------------------------------------

 The number of warnings for this run is : 3
 
 -------------------------------------------------------------------------------
  **** **** ******  **  PROGRAM ENDED AT                 2024-11-05 13:13:32.596
 ***** ** ***  *** **   PROGRAM RAN ON                           BOOK-4GL9QDET17
 **    ****   ******    PROGRAM RAN BY                                     mattw
 ***** **    ** ** **   PROGRAM PROCESS ID                                 20818
  **** **  *******  **  PROGRAM STOPPED IN             /home/mattw/work/NEB/NaCl

  **** **** ******  **  PROGRAM STARTED AT               2024-11-05 13:13:56.991
 ***** ** ***  *** **   PROGRAM STARTED ON                       BOOK-4GL9QDET17
 **    ****   ******    PROGRAM STARTED BY                                 mattw
 ***** **    ** ** **   PROGRAM PROCESS ID                                 20994
  **** **  *******  **  PROGRAM STARTED IN             /home/mattw/work/NEB/NaCl

 CP2K| version string:                                          CP2K version 9.1
 CP2K| source code revision number:                                  git:d8d7100
 CP2K| cp2kflags: omp libint fftw3 libxc elpa parallel mpi3 scalapack spglib    
 CP2K| is freely available from                            https://www.cp2k.org/
 CP2K| Program compiled at                          Sun Jan  9 17:14:22 UTC 2022
 CP2K| Program compiled on                                       lcy02-amd64-025
 CP2K| Program compiled for                                Linux-x86_64-gfortran
 CP2K| Data directory path                                       /usr/share/cp2k
 CP2K| Input file name                                           test_H2_inp.inp

 GLOBAL| Force Environment number                                              1
 GLOBAL| Basis set file name                                           BASIS_SET
 GLOBAL| Potential file name                                           POTENTIAL
 GLOBAL| MM Potential file name                                     MM_POTENTIAL
 GLOBAL| Coordinate file name                                           NaCl.pdb
 GLOBAL| Method name                                                        CP2K
 GLOBAL| Project name                                                test_H2_inp
 GLOBAL| Run type                                                   ENERGY_FORCE
 GLOBAL| FFT library                                                       FFTW3
 GLOBAL| Diagonalization library                                            ELPA
 GLOBAL| Minimum number of eigenvectors for ELPA usage                        16
 GLOBAL| Orthonormality check for eigenvectors                          DISABLED
 GLOBAL| Matrix multiplication library                                 ScaLAPACK
 GLOBAL| All-to-all communication in single precision                          F
 GLOBAL| FFTs using library dependent lengths                                  F
 GLOBAL| Grid backend                                                       AUTO
 GLOBAL| Global print level                                                  LOW
 GLOBAL| MPI I/O enabled                                                       T
 GLOBAL| Total number of message passing processes                             1
 GLOBAL| Number of threads for this process                                   16
 GLOBAL| This output is from process                                           0
 GLOBAL| Stack size for threads created by OpenMP (OMP_STACKSIZE)        default
 GLOBAL| CPU model name                      12th Gen Intel(R) Core(TM) i7-1260P

 MEMORY| system memory details [Kb]
 MEMORY|                        rank 0           min           max       average
 MEMORY| MemTotal             12251484      12251484      12251484      12251484
 MEMORY| MemFree                306796        306796        306796        306796
 MEMORY| Buffers                 41660         41660         41660         41660
 MEMORY| Cached                 272008        272008        272008        272008
 MEMORY| Slab                   207100        207100        207100        207100
 MEMORY| SReclaimable           143600        143600        143600        143600
 MEMORY| MemLikelyFree          764064        764064        764064        764064



                      ************* ******** ***********   
                     ************* **********************  
                     ****     **** ****      ***********   
                     ******** ****  *******     ****       
                     *******  ****   *******   ****        
                     ****     ****       ****  ****        
                     ****     **** **********  ****        
                      ****     **** ********    ****       
                     FRONTIERS IN SIMULATION TECHNOLOGY    
                                                           
                        C.J. Mundy, S. Balasubramanian,    
                     Ken Bagchi, J. Hutter, Ari Seitsonen  
                      IFW Kuo, T. Laino, J. VandeVondele   
                                 Version 1.0               

                                                           


 *** WARNING in cell_methods.F:140 :: Cell Information provided through    ***
 *** vectors A, B and C in conjunction with ABC. The definition of the ABC ***
 *** keyword will override the one provided by A,B and C.                  ***


 EWALD| Summation is done by:                                               SPME
 EWALD| Alpha parameter [       ANGSTROM^-1]                              0.5000
 EWALD| Real Space Cutoff [          ANGSTROM]                            6.7478
 EWALD| G-space max. Miller index                         40        40        40
 EWALD| Spline interpolation order                                             6

 *** WARNING in cell_methods.F:140 :: Cell Information provided through    ***
 *** vectors A, B and C in conjunction with ABC. The definition of the ABC ***
 *** keyword will override the one provided by A,B and C.                  ***


 *** WARNING in atoms_input.F:123 :: Overwriting coordinates. Active    ***
 *** coordinates read from &COORD section. Active coordinates READ from ***
 *** &COORD section                                                     ***


 GENERATE|  Preliminary Number of Bonds generated:                             0
 GENERATE|  Achieved consistency in connectivity generation.
 CHARGE_INFO| Total Charge of the Classical System:                     0.000000

 FORCEFIELD| WARNING: A non Critical ForceField parameter is missing! CP2K GOES!
 FORCEFIELD| Non critical parameters are:Urey-Bradley,Torsions,Impropers, Opbends and 1-4
 FORCEFIELD| All missing parameters will not contribute to the potential energy!
 FORCEFIELD| Activate the print key FF_INFO to have a list of missing parameters


 SPLINE_INFO| Generating 3 splines for NONBONDED14 interactions 
              Due to 2 different atomic kinds
  ...1  ...2  ...3
 SPLINE_INFO| Number of unique splines computed:            1
 SPLINE_INFO| Done

 SPLINE_INFO| Generating 3 splines for NONBONDED interactions 
              Due to 2 different atomic kinds
  ...1  ...2  ...3
 SPLINE_INFO| Number of unique splines computed:            3
 SPLINE_INFO| Done

 ENERGY| Total FORCE_EVAL ( FIST ) energy [a.u.]:            -75.751997555078077

 -------------------------------------------------------------------------------
 -                                                                             -
 -                         MESSAGE PASSING PERFORMANCE                         -
 -                                                                             -
 -------------------------------------------------------------------------------

 ROUTINE             CALLS      AVE VOLUME [Bytes]
 MP_Group                1
 MP_Allreduce           29                    855.
 MP_Sync                 1
 -------------------------------------------------------------------------------


 -------------------------------------------------------------------------------
 -                                                                             -
 -                           R E F E R E N C E S                               -
 -                                                                             -
 -------------------------------------------------------------------------------
 
 CP2K version 9.1, the CP2K developers group (2021).
 CP2K is freely available from https://www.cp2k.org/ .

 Marek, A; Blum, V; Johanni, R; Havu, V; Lang, B; Auckenthaler, T;
 Heinecke, A; Bungartz, H; Lederer, H. 
 Journal of Physics: Condensed Matter, 26 (21), (2014). 
 The ELPA library: scalable parallel eigenvalue solutions for
 electronic structure
 theory and computational science.
 https://doi.org/10.1088/0953-8984/26/21/213201

 Frigo, M; Johnson, SG. 
 PROCEEDINGS OF THE IEEE, 93 (2), 216-231 (2005). 
 The design and implementation of FFTW3.
 https://doi.org/10.1109/JPROC.2004.840301

 ESSMANN, U; PERERA, L; BERKOWITZ, ML; DARDEN, T; LEE, H; PEDERSEN, LG. 
 JOURNAL OF CHEMICAL PHYSICS, 103 (19), 8577-8593 (1995). 
 A SMOOTH PARTICLE MESH EWALD METHOD.
 https://doi.org/10.1063/1.470117

 FUMI, FG; TOSI, MP. 
 JOURNAL OF PHYSICS AND CHEMISTRY OF SOLIDS, 25 (1), 31-43 (1964). 
 IONIC SIZES + BORN REPULSIVE PARAMETERS IN NACL-TYPE ALKALI HALIDES .I.
 HUGGINS-MAYER + PAULING FORMS.
 https://doi.org/10.1016/0022-3697(64)90159-3

 TOSI, MP; FUMI, FG. 
 JOURNAL OF PHYSICS AND CHEMISTRY OF SOLIDS, 25 (1), 45-52 (1964). 
 IONIC SIZES + BORN REPULSIVE PARAMETERS IN NACL-TYPE ALKALI HALIDES .2.
 GENERALIZED.
 https://doi.org/10.1016/0022-3697(64)90160-X


 -------------------------------------------------------------------------------
 -                                                                             -
 -                                T I M I N G                                  -
 -                                                                             -
 -------------------------------------------------------------------------------
 SUBROUTINE                       CALLS  ASD         SELF TIME        TOTAL TIME
                                MAXIMUM       AVERAGE  MAXIMUM  AVERAGE  MAXIMUM
 CP2K                                 1  1.0    0.041    0.041    4.354    4.354
 fist_calc_energy_force               1  2.0    0.000    0.000    3.965    3.965
 force_nonbond                        1  3.0    2.693    2.693    2.693    2.693
 spme_evaluate                        1  3.0    0.006    0.006    1.251    1.251
 pw_transfer                          9  4.6    0.003    0.003    0.874    0.874
 fft_wrap_pw1pw2                      4  5.0    0.000    0.000    0.697    0.697
 fft_wrap_pw1pw2_10                   4  6.0    0.092    0.092    0.697    0.697
 fft3d_s                              5  6.0    0.468    0.468    0.615    0.615
 pw_poisson_solve                     1  4.0    0.001    0.001    0.519    0.519
 pw_copy                              8  5.6    0.285    0.285    0.285    0.285
 pw_derive                            3  5.0    0.228    0.228    0.228    0.228
 pw_scatter_s                         3  7.0    0.169    0.169    0.169    0.169
 get_fft_scratch                      5  7.0    0.147    0.147    0.147    0.147
 fist_create_force_env                1  2.0    0.000    0.000    0.099    0.099
 fist_init                            1  3.0    0.008    0.008    0.099    0.099
 -------------------------------------------------------------------------------

 The number of warnings for this run is : 3
 
 -------------------------------------------------------------------------------
  **** **** ******  **  PROGRAM ENDED AT                 2024-11-05 13:14:02.399
 ***** ** ***  *** **   PROGRAM RAN ON                           BOOK-4GL9QDET17
 **    ****   ******    PROGRAM RAN BY                                     mattw
 ***** **    ** ** **   PROGRAM PROCESS ID                                 20994
  **** **  *******  **  PROGRAM STOPPED IN             /home/mattw/work/NEB/NaCl

  **** **** ******  **  PROGRAM STARTED AT               2024-11-05 13:14:15.734
 ***** ** ***  *** **   PROGRAM STARTED ON                       BOOK-4GL9QDET17
 **    ****   ******    PROGRAM STARTED BY                                 mattw
 ***** **    ** ** **   PROGRAM PROCESS ID                                 21077
  **** **  *******  **  PROGRAM STARTED IN             /home/mattw/work/NEB/NaCl

 CP2K| version string:                                          CP2K version 9.1
 CP2K| source code revision number:                                  git:d8d7100
 CP2K| cp2kflags: omp libint fftw3 libxc elpa parallel mpi3 scalapack spglib    
 CP2K| is freely available from                            https://www.cp2k.org/
 CP2K| Program compiled at                          Sun Jan  9 17:14:22 UTC 2022
 CP2K| Program compiled on                                       lcy02-amd64-025
 CP2K| Program compiled for                                Linux-x86_64-gfortran
 CP2K| Data directory path                                       /usr/share/cp2k
 CP2K| Input file name                                           test_H2_inp.inp

 GLOBAL| Force Environment number                                              1
 GLOBAL| Basis set file name                                           BASIS_SET
 GLOBAL| Potential file name                                           POTENTIAL
 GLOBAL| MM Potential file name                                     MM_POTENTIAL
 GLOBAL| Coordinate file name                                           NaCl.pdb
 GLOBAL| Method name                                                        CP2K
 GLOBAL| Project name                                                test_H2_inp
 GLOBAL| Run type                                                   ENERGY_FORCE
 GLOBAL| FFT library                                                       FFTW3
 GLOBAL| Diagonalization library                                            ELPA
 GLOBAL| Minimum number of eigenvectors for ELPA usage                        16
 GLOBAL| Orthonormality check for eigenvectors                          DISABLED
 GLOBAL| Matrix multiplication library                                 ScaLAPACK
 GLOBAL| All-to-all communication in single precision                          F
 GLOBAL| FFTs using library dependent lengths                                  F
 GLOBAL| Grid backend                                                       AUTO
 GLOBAL| Global print level                                                  LOW
 GLOBAL| MPI I/O enabled                                                       T
 GLOBAL| Total number of message passing processes                             1
 GLOBAL| Number of threads for this process                                   16
 GLOBAL| This output is from process                                           0
 GLOBAL| Stack size for threads created by OpenMP (OMP_STACKSIZE)        default
 GLOBAL| CPU model name                      12th Gen Intel(R) Core(TM) i7-1260P

 MEMORY| system memory details [Kb]
 MEMORY|                        rank 0           min           max       average
 MEMORY| MemTotal             12251484      12251484      12251484      12251484
 MEMORY| MemFree                343236        343236        343236        343236
 MEMORY| Buffers                 41764         41764         41764         41764
 MEMORY| Cached                 272168        272168        272168        272168
 MEMORY| Slab                   207232        207232        207232        207232
 MEMORY| SReclaimable           143716        143716        143716        143716
 MEMORY| MemLikelyFree          800884        800884        800884        800884



                      ************* ******** ***********   
                     ************* **********************  
                     ****     **** ****      ***********   
                     ******** ****  *******     ****       
                     *******  ****   *******   ****        
                     ****     ****       ****  ****        
                     ****     **** **********  ****        
                      ****     **** ********    ****       
                     FRONTIERS IN SIMULATION TECHNOLOGY    
                                                           
                        C.J. Mundy, S. Balasubramanian,    
                     Ken Bagchi, J. Hutter, Ari Seitsonen  
                      IFW Kuo, T. Laino, J. VandeVondele   
                                 Version 1.0               

                                                           


 *** WARNING in cell_methods.F:140 :: Cell Information provided through    ***
 *** vectors A, B and C in conjunction with ABC. The definition of the ABC ***
 *** keyword will override the one provided by A,B and C.                  ***


 EWALD| Summation is done by:                                               SPME
 EWALD| Alpha parameter [       ANGSTROM^-1]                              0.5000
 EWALD| Real Space Cutoff [          ANGSTROM]                            6.7478
 EWALD| G-space max. Miller index                         40        40        40
 EWALD| Spline interpolation order                                             6

 *** WARNING in cell_methods.F:140 :: Cell Information provided through    ***
 *** vectors A, B and C in conjunction with ABC. The definition of the ABC ***
 *** keyword will override the one provided by A,B and C.                  ***


 *** WARNING in atoms_input.F:123 :: Overwriting coordinates. Active    ***
 *** coordinates read from &COORD section. Active coordinates READ from ***
 *** &COORD section                                                     ***


 GENERATE|  Preliminary Number of Bonds generated:                             0
 GENERATE|  Achieved consistency in connectivity generation.
 CHARGE_INFO| Total Charge of the Classical System:                     0.000000

 FORCEFIELD| WARNING: A non Critical ForceField parameter is missing! CP2K GOES!
 FORCEFIELD| Non critical parameters are:Urey-Bradley,Torsions,Impropers, Opbends and 1-4
 FORCEFIELD| All missing parameters will not contribute to the potential energy!
 FORCEFIELD| Activate the print key FF_INFO to have a list of missing parameters


 SPLINE_INFO| Generating 3 splines for NONBONDED14 interactions 
              Due to 2 different atomic kinds
  ...1  ...2  ...3
 SPLINE_INFO| Number of unique splines computed:            1
 SPLINE_INFO| Done

 SPLINE_INFO| Generating 3 splines for NONBONDED interactions 
              Due to 2 different atomic kinds
  ...1  ...2  ...3
 SPLINE_INFO| Number of unique splines computed:            3
 SPLINE_INFO| Done

 ENERGY| Total FORCE_EVAL ( FIST ) energy [a.u.]:            -75.751997555078063

 -------------------------------------------------------------------------------
 -                                                                             -
 -                         MESSAGE PASSING PERFORMANCE                         -
 -                                                                             -
 -------------------------------------------------------------------------------

 ROUTINE             CALLS      AVE VOLUME [Bytes]
 MP_Group                1
 MP_Allreduce           29                    855.
 MP_Sync                 1
 -------------------------------------------------------------------------------


 -------------------------------------------------------------------------------
 -                                                                             -
 -                           R E F E R E N C E S                               -
 -                                                                             -
 -------------------------------------------------------------------------------
 
 CP2K version 9.1, the CP2K developers group (2021).
 CP2K is freely available from https://www.cp2k.org/ .

 Marek, A; Blum, V; Johanni, R; Havu, V; Lang, B; Auckenthaler, T;
 Heinecke, A; Bungartz, H; Lederer, H. 
 Journal of Physics: Condensed Matter, 26 (21), (2014). 
 The ELPA library: scalable parallel eigenvalue solutions for
 electronic structure
 theory and computational science.
 https://doi.org/10.1088/0953-8984/26/21/213201

 Frigo, M; Johnson, SG. 
 PROCEEDINGS OF THE IEEE, 93 (2), 216-231 (2005). 
 The design and implementation of FFTW3.
 https://doi.org/10.1109/JPROC.2004.840301

 ESSMANN, U; PERERA, L; BERKOWITZ, ML; DARDEN, T; LEE, H; PEDERSEN, LG. 
 JOURNAL OF CHEMICAL PHYSICS, 103 (19), 8577-8593 (1995). 
 A SMOOTH PARTICLE MESH EWALD METHOD.
 https://doi.org/10.1063/1.470117

 FUMI, FG; TOSI, MP. 
 JOURNAL OF PHYSICS AND CHEMISTRY OF SOLIDS, 25 (1), 31-43 (1964). 
 IONIC SIZES + BORN REPULSIVE PARAMETERS IN NACL-TYPE ALKALI HALIDES .I.
 HUGGINS-MAYER + PAULING FORMS.
 https://doi.org/10.1016/0022-3697(64)90159-3

 TOSI, MP; FUMI, FG. 
 JOURNAL OF PHYSICS AND CHEMISTRY OF SOLIDS, 25 (1), 45-52 (1964). 
 IONIC SIZES + BORN REPULSIVE PARAMETERS IN NACL-TYPE ALKALI HALIDES .2.
 GENERALIZED.
 https://doi.org/10.1016/0022-3697(64)90160-X


 -------------------------------------------------------------------------------
 -                                                                             -
 -                                T I M I N G                                  -
 -                                                                             -
 -------------------------------------------------------------------------------
 SUBROUTINE                       CALLS  ASD         SELF TIME        TOTAL TIME
                                MAXIMUM       AVERAGE  MAXIMUM  AVERAGE  MAXIMUM
 CP2K                                 1  1.0    0.037    0.037    3.614    3.614
 fist_calc_energy_force               1  2.0    0.000    0.000    3.313    3.313
 force_nonbond                        1  3.0    2.104    2.104    2.104    2.104
 spme_evaluate                        1  3.0    0.004    0.004    1.193    1.193
 pw_transfer                          9  4.6    0.001    0.001    0.837    0.837
 fft_wrap_pw1pw2                      4  5.0    0.000    0.000    0.674    0.674
 fft_wrap_pw1pw2_10                   4  6.0    0.089    0.089    0.674    0.674
 fft3d_s                              5  6.0    0.464    0.464    0.575    0.575
 pw_poisson_solve                     1  4.0    0.000    0.000    0.511    0.511
 pw_copy                              8  5.6    0.270    0.270    0.270    0.270
 pw_derive                            3  5.0    0.238    0.238    0.238    0.238
 pw_scatter_s                         3  7.0    0.167    0.167    0.167    0.167
 get_fft_scratch                      5  7.0    0.111    0.111    0.111    0.111
 -------------------------------------------------------------------------------

 The number of warnings for this run is : 3
 
 -------------------------------------------------------------------------------
  **** **** ******  **  PROGRAM ENDED AT                 2024-11-05 13:14:20.066
 ***** ** ***  *** **   PROGRAM RAN ON                           BOOK-4GL9QDET17
 **    ****   ******    PROGRAM RAN BY                                     mattw
 ***** **    ** ** **   PROGRAM PROCESS ID                                 21077
  **** **  *******  **  PROGRAM STOPPED IN             /home/mattw/work/NEB/NaCl

  **** **** ******  **  PROGRAM STARTED AT               2024-11-05 13:14:37.224
 ***** ** ***  *** **   PROGRAM STARTED ON                       BOOK-4GL9QDET17
 **    ****   ******    PROGRAM STARTED BY                                 mattw
 ***** **    ** ** **   PROGRAM PROCESS ID                                 21161
  **** **  *******  **  PROGRAM STARTED IN             /home/mattw/work/NEB/NaCl

 CP2K| version string:                                          CP2K version 9.1
 CP2K| source code revision number:                                  git:d8d7100
 CP2K| cp2kflags: omp libint fftw3 libxc elpa parallel mpi3 scalapack spglib    
 CP2K| is freely available from                            https://www.cp2k.org/
 CP2K| Program compiled at                          Sun Jan  9 17:14:22 UTC 2022
 CP2K| Program compiled on                                       lcy02-amd64-025
 CP2K| Program compiled for                                Linux-x86_64-gfortran
 CP2K| Data directory path                                       /usr/share/cp2k
 CP2K| Input file name                                           test_H2_inp.inp

 GLOBAL| Force Environment number                                              1
 GLOBAL| Basis set file name                                           BASIS_SET
 GLOBAL| Potential file name                                           POTENTIAL
 GLOBAL| MM Potential file name                                     MM_POTENTIAL
 GLOBAL| Coordinate file name                                           NaCl.pdb
 GLOBAL| Method name                                                        CP2K
 GLOBAL| Project name                                                test_H2_inp
 GLOBAL| Run type                                                   ENERGY_FORCE
 GLOBAL| FFT library                                                       FFTW3
 GLOBAL| Diagonalization library                                            ELPA
 GLOBAL| Minimum number of eigenvectors for ELPA usage                        16
 GLOBAL| Orthonormality check for eigenvectors                          DISABLED
 GLOBAL| Matrix multiplication library                                 ScaLAPACK
 GLOBAL| All-to-all communication in single precision                          F
 GLOBAL| FFTs using library dependent lengths                                  F
 GLOBAL| Grid backend                                                       AUTO
 GLOBAL| Global print level                                                  LOW
 GLOBAL| MPI I/O enabled                                                       T
 GLOBAL| Total number of message passing processes                             1
 GLOBAL| Number of threads for this process                                   16
 GLOBAL| This output is from process                                           0
 GLOBAL| Stack size for threads created by OpenMP (OMP_STACKSIZE)        default
 GLOBAL| CPU model name                      12th Gen Intel(R) Core(TM) i7-1260P

 MEMORY| system memory details [Kb]
 MEMORY|                        rank 0           min           max       average
 MEMORY| MemTotal             12251484      12251484      12251484      12251484
 MEMORY| MemFree                355696        355696        355696        355696
 MEMORY| Buffers                 41880         41880         41880         41880
 MEMORY| Cached                 272256        272256        272256        272256
 MEMORY| Slab                   207288        207288        207288        207288
 MEMORY| SReclaimable           143724        143724        143724        143724
 MEMORY| MemLikelyFree          813556        813556        813556        813556



                      ************* ******** ***********   
                     ************* **********************  
                     ****     **** ****      ***********   
                     ******** ****  *******     ****       
                     *******  ****   *******   ****        
                     ****     ****       ****  ****        
                     ****     **** **********  ****        
                      ****     **** ********    ****       
                     FRONTIERS IN SIMULATION TECHNOLOGY    
                                                           
                        C.J. Mundy, S. Balasubramanian,    
                     Ken Bagchi, J. Hutter, Ari Seitsonen  
                      IFW Kuo, T. Laino, J. VandeVondele   
                                 Version 1.0               

                                                           


 *** WARNING in cell_methods.F:140 :: Cell Information provided through    ***
 *** vectors A, B and C in conjunction with ABC. The definition of the ABC ***
 *** keyword will override the one provided by A,B and C.                  ***


 EWALD| Summation is done by:                                               SPME
 EWALD| Alpha parameter [       ANGSTROM^-1]                              0.5000
 EWALD| Real Space Cutoff [          ANGSTROM]                            6.7478
 EWALD| G-space max. Miller index                         40        40        40
 EWALD| Spline interpolation order                                             6

 *** WARNING in cell_methods.F:140 :: Cell Information provided through    ***
 *** vectors A, B and C in conjunction with ABC. The definition of the ABC ***
 *** keyword will override the one provided by A,B and C.                  ***


 *******************************************************************************
 *   ___                                                                       *
 *  /   \                                                                      *
 * [ABORT]                                                                     *
 *  \___/                             CPASSERT failed                          *
 *    |                                                                        *
 *  O/|                                                                        *
 * /| |                                                                        *
 * / \                                                       atoms_input.F:122 *
 *******************************************************************************


 ===== Routine Calling Stack ===== 

            7 read_atoms_input
            6 coordinate_control_READ_COORDINATE
            5 coordinate_control
            4 topology_control
            3 fist_init
            2 fist_create_force_env
            1 CP2K

  **** **** ******  **  PROGRAM STARTED AT               2024-11-05 13:15:09.025
 ***** ** ***  *** **   PROGRAM STARTED ON                       BOOK-4GL9QDET17
 **    ****   ******    PROGRAM STARTED BY                                 mattw
 ***** **    ** ** **   PROGRAM PROCESS ID                                 21281
  **** **  *******  **  PROGRAM STARTED IN             /home/mattw/work/NEB/NaCl

 CP2K| version string:                                          CP2K version 9.1
 CP2K| source code revision number:                                  git:d8d7100
 CP2K| cp2kflags: omp libint fftw3 libxc elpa parallel mpi3 scalapack spglib    
 CP2K| is freely available from                            https://www.cp2k.org/
 CP2K| Program compiled at                          Sun Jan  9 17:14:22 UTC 2022
 CP2K| Program compiled on                                       lcy02-amd64-025
 CP2K| Program compiled for                                Linux-x86_64-gfortran
 CP2K| Data directory path                                       /usr/share/cp2k
 CP2K| Input file name                                           test_H2_inp.inp

 GLOBAL| Force Environment number                                              1
 GLOBAL| Basis set file name                                           BASIS_SET
 GLOBAL| Potential file name                                           POTENTIAL
 GLOBAL| MM Potential file name                                     MM_POTENTIAL
 GLOBAL| Coordinate file name                                      __STD_INPUT__
 GLOBAL| Method name                                                        CP2K
 GLOBAL| Project name                                                test_H2_inp
 GLOBAL| Run type                                                   ENERGY_FORCE
 GLOBAL| FFT library                                                       FFTW3
 GLOBAL| Diagonalization library                                            ELPA
 GLOBAL| Minimum number of eigenvectors for ELPA usage                        16
 GLOBAL| Orthonormality check for eigenvectors                          DISABLED
 GLOBAL| Matrix multiplication library                                 ScaLAPACK
 GLOBAL| All-to-all communication in single precision                          F
 GLOBAL| FFTs using library dependent lengths                                  F
 GLOBAL| Grid backend                                                       AUTO
 GLOBAL| Global print level                                                  LOW
 GLOBAL| MPI I/O enabled                                                       T
 GLOBAL| Total number of message passing processes                             1
 GLOBAL| Number of threads for this process                                   16
 GLOBAL| This output is from process                                           0
 GLOBAL| Stack size for threads created by OpenMP (OMP_STACKSIZE)        default
 GLOBAL| CPU model name                      12th Gen Intel(R) Core(TM) i7-1260P

 MEMORY| system memory details [Kb]
 MEMORY|                        rank 0           min           max       average
 MEMORY| MemTotal             12251484      12251484      12251484      12251484
 MEMORY| MemFree                330752        330752        330752        330752
 MEMORY| Buffers                 42044         42044         42044         42044
 MEMORY| Cached                 272608        272608        272608        272608
 MEMORY| Slab                   207316        207316        207316        207316
 MEMORY| SReclaimable           143780        143780        143780        143780
 MEMORY| MemLikelyFree          789184        789184        789184        789184



                      ************* ******** ***********   
                     ************* **********************  
                     ****     **** ****      ***********   
                     ******** ****  *******     ****       
                     *******  ****   *******   ****        
                     ****     ****       ****  ****        
                     ****     **** **********  ****        
                      ****     **** ********    ****       
                     FRONTIERS IN SIMULATION TECHNOLOGY    
                                                           
                        C.J. Mundy, S. Balasubramanian,    
                     Ken Bagchi, J. Hutter, Ari Seitsonen  
                      IFW Kuo, T. Laino, J. VandeVondele   
                                 Version 1.0               

                                                           


 *** WARNING in cell_methods.F:140 :: Cell Information provided through    ***
 *** vectors A, B and C in conjunction with ABC. The definition of the ABC ***
 *** keyword will override the one provided by A,B and C.                  ***


 EWALD| Summation is done by:                                               SPME
 EWALD| Alpha parameter [       ANGSTROM^-1]                              0.5000
 EWALD| Real Space Cutoff [          ANGSTROM]                            6.7478
 EWALD| G-space max. Miller index                         40        40        40
 EWALD| Spline interpolation order                                             6

 *** WARNING in cell_methods.F:140 :: Cell Information provided through    ***
 *** vectors A, B and C in conjunction with ABC. The definition of the ABC ***
 *** keyword will override the one provided by A,B and C.                  ***


 GENERATE|  Preliminary Number of Bonds generated:                             0
 GENERATE|  Achieved consistency in connectivity generation.
 CHARGE_INFO| Total Charge of the Classical System:                     0.000000

 FORCEFIELD| WARNING: A non Critical ForceField parameter is missing! CP2K GOES!
 FORCEFIELD| Non critical parameters are:Urey-Bradley,Torsions,Impropers, Opbends and 1-4
 FORCEFIELD| All missing parameters will not contribute to the potential energy!
 FORCEFIELD| Activate the print key FF_INFO to have a list of missing parameters


 SPLINE_INFO| Generating 3 splines for NONBONDED14 interactions 
              Due to 2 different atomic kinds
  ...1  ...2  ...3
 SPLINE_INFO| Number of unique splines computed:            1
 SPLINE_INFO| Done

 SPLINE_INFO| Generating 3 splines for NONBONDED interactions 
              Due to 2 different atomic kinds
  ...1  ...2  ...3
 SPLINE_INFO| Number of unique splines computed:            3
 SPLINE_INFO| Done

 ENERGY| Total FORCE_EVAL ( FIST ) energy [a.u.]:            -75.751997555078205

 -------------------------------------------------------------------------------
 -                                                                             -
 -                         MESSAGE PASSING PERFORMANCE                         -
 -                                                                             -
 -------------------------------------------------------------------------------

 ROUTINE             CALLS      AVE VOLUME [Bytes]
 MP_Group                1
 MP_Allreduce           29                    855.
 MP_Sync                 1
 -------------------------------------------------------------------------------


 -------------------------------------------------------------------------------
 -                                                                             -
 -                           R E F E R E N C E S                               -
 -                                                                             -
 -------------------------------------------------------------------------------
 
 CP2K version 9.1, the CP2K developers group (2021).
 CP2K is freely available from https://www.cp2k.org/ .

 Marek, A; Blum, V; Johanni, R; Havu, V; Lang, B; Auckenthaler, T;
 Heinecke, A; Bungartz, H; Lederer, H. 
 Journal of Physics: Condensed Matter, 26 (21), (2014). 
 The ELPA library: scalable parallel eigenvalue solutions for
 electronic structure
 theory and computational science.
 https://doi.org/10.1088/0953-8984/26/21/213201

 Frigo, M; Johnson, SG. 
 PROCEEDINGS OF THE IEEE, 93 (2), 216-231 (2005). 
 The design and implementation of FFTW3.
 https://doi.org/10.1109/JPROC.2004.840301

 ESSMANN, U; PERERA, L; BERKOWITZ, ML; DARDEN, T; LEE, H; PEDERSEN, LG. 
 JOURNAL OF CHEMICAL PHYSICS, 103 (19), 8577-8593 (1995). 
 A SMOOTH PARTICLE MESH EWALD METHOD.
 https://doi.org/10.1063/1.470117

 FUMI, FG; TOSI, MP. 
 JOURNAL OF PHYSICS AND CHEMISTRY OF SOLIDS, 25 (1), 31-43 (1964). 
 IONIC SIZES + BORN REPULSIVE PARAMETERS IN NACL-TYPE ALKALI HALIDES .I.
 HUGGINS-MAYER + PAULING FORMS.
 https://doi.org/10.1016/0022-3697(64)90159-3

 TOSI, MP; FUMI, FG. 
 JOURNAL OF PHYSICS AND CHEMISTRY OF SOLIDS, 25 (1), 45-52 (1964). 
 IONIC SIZES + BORN REPULSIVE PARAMETERS IN NACL-TYPE ALKALI HALIDES .2.
 GENERALIZED.
 https://doi.org/10.1016/0022-3697(64)90160-X


 -------------------------------------------------------------------------------
 -                                                                             -
 -                                T I M I N G                                  -
 -                                                                             -
 -------------------------------------------------------------------------------
 SUBROUTINE                       CALLS  ASD         SELF TIME        TOTAL TIME
                                MAXIMUM       AVERAGE  MAXIMUM  AVERAGE  MAXIMUM
 CP2K                                 1  1.0    0.036    0.036    3.587    3.587
 fist_calc_energy_force               1  2.0    0.000    0.000    3.252    3.252
 force_nonbond                        1  3.0    2.090    2.090    2.090    2.090
 spme_evaluate                        1  3.0    0.005    0.005    1.142    1.142
 pw_transfer                          9  4.6    0.002    0.002    0.844    0.844
 fft_wrap_pw1pw2                      4  5.0    0.000    0.000    0.665    0.665
 fft_wrap_pw1pw2_10                   4  6.0    0.098    0.098    0.665    0.665
 fft3d_s                              5  6.0    0.451    0.451    0.588    0.588
 pw_poisson_solve                     1  4.0    0.000    0.000    0.469    0.469
 pw_copy                              8  5.6    0.259    0.259    0.259    0.259
 pw_derive                            3  5.0    0.205    0.205    0.205    0.205
 pw_scatter_s                         3  7.0    0.174    0.174    0.174    0.174
 get_fft_scratch                      5  7.0    0.137    0.137    0.137    0.137
 -------------------------------------------------------------------------------

 The number of warnings for this run is : 2
 
 -------------------------------------------------------------------------------
  **** **** ******  **  PROGRAM ENDED AT                 2024-11-05 13:15:13.489
 ***** ** ***  *** **   PROGRAM RAN ON                           BOOK-4GL9QDET17
 **    ****   ******    PROGRAM RAN BY                                     mattw
 ***** **    ** ** **   PROGRAM PROCESS ID                                 21281
  **** **  *******  **  PROGRAM STOPPED IN             /home/mattw/work/NEB/NaCl

  **** **** ******  **  PROGRAM STARTED AT               2024-11-05 13:15:56.131
 ***** ** ***  *** **   PROGRAM STARTED ON                       BOOK-4GL9QDET17
 **    ****   ******    PROGRAM STARTED BY                                 mattw
 ***** **    ** ** **   PROGRAM PROCESS ID                                 21444
  **** **  *******  **  PROGRAM STARTED IN             /home/mattw/work/NEB/NaCl

 CP2K| version string:                                          CP2K version 9.1
 CP2K| source code revision number:                                  git:d8d7100
 CP2K| cp2kflags: omp libint fftw3 libxc elpa parallel mpi3 scalapack spglib    
 CP2K| is freely available from                            https://www.cp2k.org/
 CP2K| Program compiled at                          Sun Jan  9 17:14:22 UTC 2022
 CP2K| Program compiled on                                       lcy02-amd64-025
 CP2K| Program compiled for                                Linux-x86_64-gfortran
 CP2K| Data directory path                                       /usr/share/cp2k
 CP2K| Input file name                                           test_H2_inp.inp

 GLOBAL| Force Environment number                                              1
 GLOBAL| Basis set file name                                           BASIS_SET
 GLOBAL| Potential file name                                           POTENTIAL
 GLOBAL| MM Potential file name                                     MM_POTENTIAL
 GLOBAL| Coordinate file name                                      __STD_INPUT__
 GLOBAL| Method name                                                        CP2K
 GLOBAL| Project name                                                test_H2_inp
 GLOBAL| Run type                                                   ENERGY_FORCE
 GLOBAL| FFT library                                                       FFTW3
 GLOBAL| Diagonalization library                                            ELPA
 GLOBAL| Minimum number of eigenvectors for ELPA usage                        16
 GLOBAL| Orthonormality check for eigenvectors                          DISABLED
 GLOBAL| Matrix multiplication library                                 ScaLAPACK
 GLOBAL| All-to-all communication in single precision                          F
 GLOBAL| FFTs using library dependent lengths                                  F
 GLOBAL| Grid backend                                                       AUTO
 GLOBAL| Global print level                                                  LOW
 GLOBAL| MPI I/O enabled                                                       T
 GLOBAL| Total number of message passing processes                             1
 GLOBAL| Number of threads for this process                                   16
 GLOBAL| This output is from process                                           0
 GLOBAL| Stack size for threads created by OpenMP (OMP_STACKSIZE)        default
 GLOBAL| CPU model name                      12th Gen Intel(R) Core(TM) i7-1260P

 MEMORY| system memory details [Kb]
 MEMORY|                        rank 0           min           max       average
 MEMORY| MemTotal             12251484      12251484      12251484      12251484
 MEMORY| MemFree                325428        325428        325428        325428
 MEMORY| Buffers                 42772         42772         42772         42772
 MEMORY| Cached                 273756        273756        273756        273756
 MEMORY| Slab                   207376        207376        207376        207376
 MEMORY| SReclaimable           143856        143856        143856        143856
 MEMORY| MemLikelyFree          785812        785812        785812        785812



                      ************* ******** ***********   
                     ************* **********************  
                     ****     **** ****      ***********   
                     ******** ****  *******     ****       
                     *******  ****   *******   ****        
                     ****     ****       ****  ****        
                     ****     **** **********  ****        
                      ****     **** ********    ****       
                     FRONTIERS IN SIMULATION TECHNOLOGY    
                                                           
                        C.J. Mundy, S. Balasubramanian,    
                     Ken Bagchi, J. Hutter, Ari Seitsonen  
                      IFW Kuo, T. Laino, J. VandeVondele   
                                 Version 1.0               

                                                           


 *** WARNING in cell_methods.F:140 :: Cell Information provided through    ***
 *** vectors A, B and C in conjunction with ABC. The definition of the ABC ***
 *** keyword will override the one provided by A,B and C.                  ***


 EWALD| Summation is done by:                                               SPME
 EWALD| Alpha parameter [       ANGSTROM^-1]                              0.5000
 EWALD| Real Space Cutoff [          ANGSTROM]                            6.7478
 EWALD| G-space max. Miller index                         40        40        40
 EWALD| Spline interpolation order                                             6

 *** WARNING in cell_methods.F:140 :: Cell Information provided through    ***
 *** vectors A, B and C in conjunction with ABC. The definition of the ABC ***
 *** keyword will override the one provided by A,B and C.                  ***


 GENERATE|  Preliminary Number of Bonds generated:                             0
 GENERATE|  Achieved consistency in connectivity generation.
 CHARGE_INFO| Total Charge of the Classical System:                    -1.000000

 FORCEFIELD| WARNING: A non Critical ForceField parameter is missing! CP2K GOES!
 FORCEFIELD| Non critical parameters are:Urey-Bradley,Torsions,Impropers, Opbends and 1-4
 FORCEFIELD| All missing parameters will not contribute to the potential energy!
 FORCEFIELD| Activate the print key FF_INFO to have a list of missing parameters


 SPLINE_INFO| Generating 3 splines for NONBONDED14 interactions 
              Due to 2 different atomic kinds
  ...1  ...2  ...3
 SPLINE_INFO| Number of unique splines computed:            1
 SPLINE_INFO| Done

 SPLINE_INFO| Generating 3 splines for NONBONDED interactions 
              Due to 2 different atomic kinds
  ...1  ...2  ...3
 SPLINE_INFO| Number of unique splines computed:            3
 SPLINE_INFO| Done

 ENERGY| Total FORCE_EVAL ( FIST ) energy [a.u.]:            -75.492165767290430

 -------------------------------------------------------------------------------
 -                                                                             -
 -                         MESSAGE PASSING PERFORMANCE                         -
 -                                                                             -
 -------------------------------------------------------------------------------

 ROUTINE             CALLS      AVE VOLUME [Bytes]
 MP_Group                1
 MP_Allreduce           29                    853.
 MP_Sync                 1
 -------------------------------------------------------------------------------


 -------------------------------------------------------------------------------
 -                                                                             -
 -                           R E F E R E N C E S                               -
 -                                                                             -
 -------------------------------------------------------------------------------
 
 CP2K version 9.1, the CP2K developers group (2021).
 CP2K is freely available from https://www.cp2k.org/ .

 Marek, A; Blum, V; Johanni, R; Havu, V; Lang, B; Auckenthaler, T;
 Heinecke, A; Bungartz, H; Lederer, H. 
 Journal of Physics: Condensed Matter, 26 (21), (2014). 
 The ELPA library: scalable parallel eigenvalue solutions for
 electronic structure
 theory and computational science.
 https://doi.org/10.1088/0953-8984/26/21/213201

 Frigo, M; Johnson, SG. 
 PROCEEDINGS OF THE IEEE, 93 (2), 216-231 (2005). 
 The design and implementation of FFTW3.
 https://doi.org/10.1109/JPROC.2004.840301

 ESSMANN, U; PERERA, L; BERKOWITZ, ML; DARDEN, T; LEE, H; PEDERSEN, LG. 
 JOURNAL OF CHEMICAL PHYSICS, 103 (19), 8577-8593 (1995). 
 A SMOOTH PARTICLE MESH EWALD METHOD.
 https://doi.org/10.1063/1.470117

 FUMI, FG; TOSI, MP. 
 JOURNAL OF PHYSICS AND CHEMISTRY OF SOLIDS, 25 (1), 31-43 (1964). 
 IONIC SIZES + BORN REPULSIVE PARAMETERS IN NACL-TYPE ALKALI HALIDES .I.
 HUGGINS-MAYER + PAULING FORMS.
 https://doi.org/10.1016/0022-3697(64)90159-3

[...]
 GLOBAL| Minimum number of eigenvectors for ELPA usage                        16
 GLOBAL| Orthonormality check for eigenvectors                          DISABLED
 GLOBAL| Matrix multiplication library                                 ScaLAPACK
 GLOBAL| All-to-all communication in single precision                          F
 GLOBAL| FFTs using library dependent lengths                                  F
 GLOBAL| Grid backend                                                       AUTO
 GLOBAL| Global print level                                                  LOW
 GLOBAL| MPI I/O enabled                                                       T
 GLOBAL| Total number of message passing processes                             1
 GLOBAL| Number of threads for this process                                   16
 GLOBAL| This output is from process                                           0
 GLOBAL| Stack size for threads created by OpenMP (OMP_STACKSIZE)        default
 GLOBAL| CPU model name                      12th Gen Intel(R) Core(TM) i7-1260P

 MEMORY| system memory details [Kb]
 MEMORY|                        rank 0           min           max       average
 MEMORY| MemTotal             12251484      12251484      12251484      12251484
 MEMORY| MemFree               7984656       7984656       7984656       7984656
 MEMORY| Buffers                 41108         41108         41108         41108
 MEMORY| Cached                 513100        513100        513100        513100
 MEMORY| Slab                   229976        229976        229976        229976
 MEMORY| SReclaimable           153760        153760        153760        153760
 MEMORY| MemLikelyFree         8692624       8692624       8692624       8692624



                      ************* ******** ***********   
                     ************* **********************  
                     ****     **** ****      ***********   
                     ******** ****  *******     ****       
                     *******  ****   *******   ****        
                     ****     ****       ****  ****        
                     ****     **** **********  ****        
                      ****     **** ********    ****       
                     FRONTIERS IN SIMULATION TECHNOLOGY    
                                                           
                        C.J. Mundy, S. Balasubramanian,    
                     Ken Bagchi, J. Hutter, Ari Seitsonen  
                      IFW Kuo, T. Laino, J. VandeVondele   
                                 Version 1.0               

                                                           


 *** WARNING in cell_methods.F:140 :: Cell Information provided through    ***
 *** vectors A, B and C in conjunction with ABC. The definition of the ABC ***
 *** keyword will override the one provided by A,B and C.                  ***


 EWALD| Summation is done by:                                               SPME
 EWALD| Alpha parameter [       ANGSTROM^-1]                              0.5000
 EWALD| Real Space Cutoff [          ANGSTROM]                            6.7478
 EWALD| G-space max. Miller index                         40        40        40
 EWALD| Spline interpolation order                                             6

 *** WARNING in cell_methods.F:140 :: Cell Information provided through    ***
 *** vectors A, B and C in conjunction with ABC. The definition of the ABC ***
 *** keyword will override the one provided by A,B and C.                  ***


  **** **** ******  **  PROGRAM STARTED AT               2024-11-06 09:04:55.197
 ***** ** ***  *** **   PROGRAM STARTED ON                       BOOK-4GL9QDET17
 **    ****   ******    PROGRAM STARTED BY                                 mattw
 ***** **    ** ** **   PROGRAM PROCESS ID                                  9844
  **** **  *******  **  PROGRAM STARTED IN             /home/mattw/work/NEB/NaCl

 CP2K| version string:                                          CP2K version 9.1
 CP2K| source code revision number:                                  git:d8d7100
 CP2K| cp2kflags: omp libint fftw3 libxc elpa parallel mpi3 scalapack spglib    
 CP2K| is freely available from                            https://www.cp2k.org/
 CP2K| Program compiled at                          Sun Jan  9 17:14:22 UTC 2022
 CP2K| Program compiled on                                       lcy02-amd64-025
 CP2K| Program compiled for                                Linux-x86_64-gfortran
 CP2K| Data directory path                                       /usr/share/cp2k
 CP2K| Input file name                                           test_H2_inp.inp

 GLOBAL| Force Environment number                                              1
 GLOBAL| Basis set file name                                           BASIS_SET
 GLOBAL| Potential file name                                           POTENTIAL
 GLOBAL| MM Potential file name                                     MM_POTENTIAL
 GLOBAL| Coordinate file name                                      __STD_INPUT__
 GLOBAL| Method name                                                        CP2K
 GLOBAL| Project name                                                test_H2_inp
 GLOBAL| Run type                                                   ENERGY_FORCE
 GLOBAL| FFT library                                                       FFTW3
 GLOBAL| Diagonalization library                                            ELPA
 GLOBAL| Minimum number of eigenvectors for ELPA usage                        16
 GLOBAL| Orthonormality check for eigenvectors                          DISABLED
 GLOBAL| Matrix multiplication library                                 ScaLAPACK
 GLOBAL| All-to-all communication in single precision                          F
 GLOBAL| FFTs using library dependent lengths                                  F
 GLOBAL| Grid backend                                                       AUTO
 GLOBAL| Global print level                                                  LOW
 GLOBAL| MPI I/O enabled                                                       T
 GLOBAL| Total number of message passing processes                             1
 GLOBAL| Number of threads for this process                                   16
 GLOBAL| This output is from process                                           0
 GLOBAL| Stack size for threads created by OpenMP (OMP_STACKSIZE)        default
 GLOBAL| CPU model name                      12th Gen Intel(R) Core(TM) i7-1260P

 MEMORY| system memory details [Kb]
 MEMORY|                        rank 0           min           max       average
 MEMORY| MemTotal             12251484      12251484      12251484      12251484
 MEMORY| MemFree               7971020       7971020       7971020       7971020
 MEMORY| Buffers                 41116         41116         41116         41116
 MEMORY| Cached                 513140        513140        513140        513140
 MEMORY| Slab                   229976        229976        229976        229976
 MEMORY| SReclaimable           153760        153760        153760        153760
 MEMORY| MemLikelyFree         8679036       8679036       8679036       8679036



                      ************* ******** ***********   
                     ************* **********************  
                     ****     **** ****      ***********   
                     ******** ****  *******     ****       
                     *******  ****   *******   ****        
                     ****     ****       ****  ****        
                     ****     **** **********  ****        
                      ****     **** ********    ****       
                     FRONTIERS IN SIMULATION TECHNOLOGY    
                                                           
                        C.J. Mundy, S. Balasubramanian,    
                     Ken Bagchi, J. Hutter, Ari Seitsonen  
                      IFW Kuo, T. Laino, J. VandeVondele   
                                 Version 1.0               

                                                           


 *** WARNING in cell_methods.F:140 :: Cell Information provided through    ***
 *** vectors A, B and C in conjunction with ABC. The definition of the ABC ***
 *** keyword will override the one provided by A,B and C.                  ***


 EWALD| Summation is done by:                                               SPME
 EWALD| Alpha parameter [       ANGSTROM^-1]                              0.5000
 EWALD| Real Space Cutoff [          ANGSTROM]                            6.7478
 EWALD| G-space max. Miller index                         40        40        40
 EWALD| Spline interpolation order                                             6

 *** WARNING in cell_methods.F:140 :: Cell Information provided through    ***
 *** vectors A, B and C in conjunction with ABC. The definition of the ABC ***
 *** keyword will override the one provided by A,B and C.                  ***


  **** **** ******  **  PROGRAM STARTED AT               2024-11-06 09:04:52.166
 ***** ** ***  *** **   PROGRAM STARTED ON                       BOOK-4GL9QDET17
 **    ****   ******    PROGRAM STARTED BY                                 mattw
 ***** **    ** ** **   PROGRAM PROCESS ID                                  9677
  **** **  *******  **  PROGRAM STARTED IN             /home/mattw/work/NEB/NaCl

 CP2K| version string:                                          CP2K version 9.1
 CP2K| source code revision number:                                  git:d8d7100
 CP2K| cp2kflags: omp libint fftw3 libxc elpa parallel mpi3 scalapack spglib    
 CP2K| is freely available from                            https://www.cp2k.org/
 CP2K| Program compiled at                          Sun Jan  9 17:14:22 UTC 2022
 CP2K| Program compiled on                                       lcy02-amd64-025
 CP2K| Program compiled for                                Linux-x86_64-gfortran
 CP2K| Data directory path                                       /usr/share/cp2k
 CP2K| Input file name                                           test_H2_inp.inp

 GLOBAL| Force Environment number                                              1
 GLOBAL| Basis set file name                                           BASIS_SET
 GLOBAL| Potential file name                                           POTENTIAL
 GLOBAL| MM Potential file name                                     MM_POTENTIAL
 GLOBAL| Coordinate file name                                      __STD_INPUT__
 GLOBAL| Method name                                                        CP2K
 GLOBAL| Project name                                                test_H2_inp
 GLOBAL| Run type                                                   ENERGY_FORCE
 GLOBAL| FFT library                                                       FFTW3
 GLOBAL| Diagonalization library                                            ELPA
 GLOBAL| Minimum number of eigenvectors for ELPA usage                        16
 GLOBAL| Orthonormality check for eigenvectors                          DISABLED
 GLOBAL| Matrix multiplication library                                 ScaLAPACK
 GLOBAL| All-to-all communication in single precision                          F
 GLOBAL| FFTs using library dependent lengths                                  F
 GLOBAL| Grid backend                                                       AUTO
 GLOBAL| Global print level                                                  LOW
 GLOBAL| MPI I/O enabled                                                       T
 GLOBAL| Total number of message passing processes                             1
 GLOBAL| Number of threads for this process                                   16
 GLOBAL| This output is from process                                           0
 GLOBAL| Stack size for threads created by OpenMP (OMP_STACKSIZE)        default
 GLOBAL| CPU model name                      12th Gen Intel(R) Core(TM) i7-1260P

 MEMORY| system memory details [Kb]
 MEMORY|                        rank 0           min           max       average
 MEMORY| MemTotal             12251484      12251484      12251484      12251484
 MEMORY| MemFree               7950200       7950200       7950200       7950200
 MEMORY| Buffers                 41132         41132         41132         41132
 MEMORY| Cached                 513112        513112        513112        513112
 MEMORY| Slab                   230148        230148        230148        230148
 MEMORY| SReclaimable           153888        153888        153888        153888
 MEMORY| MemLikelyFree         8658332       8658332       8658332       8658332



                      ************* ******** ***********   
                     ************* **********************  
                     ****     **** ****      ***********   
                     ******** ****  *******     ****       
                     *******  ****   *******   ****        
                     ****     ****       ****  ****        
                     ****     **** **********  ****        
                      ****     **** ********    ****       
                     FRONTIERS IN SIMULATION TECHNOLOGY    
                                                           
                        C.J. Mundy, S. Balasubramanian,    
                     Ken Bagchi, J. Hutter, Ari Seitsonen  
                      IFW Kuo, T. Laino, J. VandeVondele   
                                 Version 1.0               

                                                           


 *** WARNING in cell_methods.F:140 :: Cell Information provided through    ***
 *** vectors A, B and C in conjunction with ABC. The definition of the ABC ***
 *** keyword will override the one provided by A,B and C.                  ***


 EWALD| Summation is done by:                                               SPME
 EWALD| Alpha parameter [       ANGSTROM^-1]                              0.5000
 EWALD| Real Space Cutoff [          ANGSTROM]                            6.7478
 EWALD| G-space max. Miller index                         40        40        40
 EWALD| Spline interpolation order                                             6

 *** WARNING in cell_methods.F:140 :: Cell Information provided through    ***
 *** vectors A, B and C in conjunction with ABC. The definition of the ABC ***
 *** keyword will override the one provided by A,B and C.                  ***


  **** **** ******  **  PROGRAM STARTED AT               2024-11-06 09:04:55.640
 ***** ** ***  *** **   PROGRAM STARTED ON                       BOOK-4GL9QDET17
 **    ****   ******    PROGRAM STARTED BY                                 mattw
 ***** **    ** ** **   PROGRAM PROCESS ID                                  9867
  **** **  *******  **  PROGRAM STARTED IN             /home/mattw/work/NEB/NaCl

 CP2K| version string:                                          CP2K version 9.1
 CP2K| source code revision number:                                  git:d8d7100
 CP2K| cp2kflags: omp libint fftw3 libxc elpa parallel mpi3 scalapack spglib    
 CP2K| is freely available from                            https://www.cp2k.org/
 CP2K| Program compiled at                          Sun Jan  9 17:14:22 UTC 2022
 CP2K| Program compiled on                                       lcy02-amd64-025
 CP2K| Program compiled for                                Linux-x86_64-gfortran
 CP2K| Data directory path                                       /usr/share/cp2k
 CP2K| Input file name                                           test_H2_inp.inp

 GLOBAL| Force Environment number                                              1
 GLOBAL| Basis set file name                                           BASIS_SET
 GLOBAL| Potential file name                                           POTENTIAL
 GLOBAL| MM Potential file name                                     MM_POTENTIAL
 GLOBAL| Coordinate file name                                      __STD_INPUT__
 GLOBAL| Method name                                                        CP2K
 GLOBAL| Project name                                                test_H2_inp
 GLOBAL| Run type                                                   ENERGY_FORCE
 GLOBAL| FFT library                                                       FFTW3
 GLOBAL| Diagonalization library                                            ELPA
 GLOBAL| Minimum number of eigenvectors for ELPA usage                        16
 GLOBAL| Orthonormality check for eigenvectors                          DISABLED
 GLOBAL| Matrix multiplication library                                 ScaLAPACK
 GLOBAL| All-to-all communication in single precision                          F
 GLOBAL| FFTs using library dependent lengths                                  F
 GLOBAL| Grid backend                                                       AUTO
 GLOBAL| Global print level                                                  LOW
 GLOBAL| MPI I/O enabled                                                       T
 GLOBAL| Total number of message passing processes                             1
 GLOBAL| Number of threads for this process                                   16
 GLOBAL| This output is from process                                           0
 GLOBAL| Stack size for threads created by OpenMP (OMP_STACKSIZE)        default
 GLOBAL| CPU model name                      12th Gen Intel(R) Core(TM) i7-1260P

 MEMORY| system memory details [Kb]
 MEMORY|                        rank 0           min           max       average
 MEMORY| MemTotal             12251484      12251484      12251484      12251484
 MEMORY| MemFree               7939584       7939584       7939584       7939584
 MEMORY| Buffers                 41132         41132         41132         41132
 MEMORY| Cached                 513116        513116        513116        513116
 MEMORY| Slab                   230148        230148        230148        230148
 MEMORY| SReclaimable           153888        153888        153888        153888
 MEMORY| MemLikelyFree         8647720       8647720       8647720       8647720



                      ************* ******** ***********   
                     ************* **********************  
                     ****     **** ****      ***********   
                     ******** ****  *******     ****       
                     *******  ****   *******   ****        
                     ****     ****       ****  ****        
                     ****     **** **********  ****        
                      ****     **** ********    ****       
                     FRONTIERS IN SIMULATION TECHNOLOGY    
                                                           
                        C.J. Mundy, S. Balasubramanian,    
                     Ken Bagchi, J. Hutter, Ari Seitsonen  
                      IFW Kuo, T. Laino, J. VandeVondele   
                                 Version 1.0               

                                                           


 *** WARNING in cell_methods.F:140 :: Cell Information provided through    ***
 *** vectors A, B and C in conjunction with ABC. The definition of the ABC ***
 *** keyword will override the one provided by A,B and C.                  ***


 EWALD| Summation is done by:                                               SPME
 EWALD| Alpha parameter [       ANGSTROM^-1]                              0.5000
 EWALD| Real Space Cutoff [          ANGSTROM]                            6.7478
 EWALD| G-space max. Miller index                         40        40        40
 EWALD| Spline interpolation order                                             6

 *** WARNING in cell_methods.F:140 :: Cell Information provided through    ***
 *** vectors A, B and C in conjunction with ABC. The definition of the ABC ***
 *** keyword will override the one provided by A,B and C.                  ***

