511
Lattice="22.48 0.0 0.0 0.0 22.48 0.0 0.0 0.0 22.48" Properties=species:S:1:pos:R:3:occupancy:R:1:bfactor:R:1:residuenames:S:1:atomtypes:S:1:residuenumbers:I:1:forces:R:3 energy=-2056.0495288018 free_energy=-2056.0495288018 stress="-0.0 -0.0 -0.0 -0.0 -0.0 -0.0 -0.0 -0.0 -0.0" pbc="T T T"
Na       0.01015282       0.03687705       0.03687705       1.00000000       0.00000000 NMO Na        0       0.01107489      -0.01426132      -0.01426132
Na      -0.23395824       2.78992313       2.78992313       1.00000000       0.00000000 NMO Na        0      -0.03183940       0.01541939       0.01541939
Cl       2.81000000       0.39111949       0.39111949       1.00000000       0.00000000 CMO Cl        0       0.00000000      -0.22729073      -0.22729073
Na       2.81000000      -0.25568443       2.94512151       1.00000000       0.00000000 NMO Na        0      -0.00000000       0.01411328      -0.07512493
Cl       0.02296621       2.86346581       0.05323937       1.00000000       0.00000000 CMO Cl        0       0.04546985      -0.02028203       0.02874844
Na       2.81000000       2.94512151      -0.25568443       1.00000000       0.00000000 NMO Na        0      -0.00000000      -0.07512493       0.01411328
Cl       0.02296621       0.05323937       2.86346581       1.00000000       0.00000000 CMO Cl        0       0.04546985       0.02874844      -0.02028203
Na      -0.03480972      -0.01419962       5.65316284       1.00000000       0.00000000 NMO Na        0       0.01036500      -0.00273839       0.00317162
Cl       2.81000000       2.81498915       8.49079772       1.00000000       0.00000000 CMO Cl        0      -0.00000000       0.00300946       0.01689513
Na      -0.02191518       2.80961421       8.46628774       1.00000000       0.00000000 NMO Na        0      -0.00126828       0.00170012       0.01021955
Cl       2.81000000       0.08199569       5.59592969       1.00000000       0.00000000 CMO Cl        0       0.00000000       0.00346579      -0.01878769
Na       2.81000000      -0.02262671       8.47161075       1.00000000       0.00000000 NMO Na        0      -0.00000000      -0.00365532       0.00265106
Cl       0.09507514       2.80760542       5.52718665       1.00000000       0.00000000 CMO Cl        0      -0.00381138       0.00144752       0.00262969
Na       2.81000000       2.81736616       5.88118690       1.00000000       0.00000000 NMO Na        0      -0.00000000      -0.00641853       0.01253763
Cl       0.01139193       0.01652499       8.41334960       1.00000000       0.00000000 CMO Cl        0      -0.00381156       0.00318546       0.00754233
Na      -0.00379640      -0.00260095      11.24875753       1.00000000       0.00000000 NMO Na        0      -0.00047927       0.00038250       0.00334832
Cl       2.81000000       2.81159424      14.04850451       1.00000000       0.00000000 CMO Cl        0      -0.00000000       0.00054777      -0.00156737
Na      -0.00592361       2.81011801      14.04896813       1.00000000       0.00000000 NMO Na        0      -0.00136133      -0.00096118       0.00082195
Cl       2.81000000      -0.00374360      11.24122333       1.00000000       0.00000000 CMO Cl        0      -0.00000000      -0.00400044       0.00297233
Na       2.81000000      -0.00552040      14.04441415       1.00000000       0.00000000 NMO Na        0      -0.00000000      -0.00198301       0.00111690
Cl      -0.00376295       2.81018442      11.24038261       1.00000000       0.00000000 CMO Cl        0      -0.00459701       0.00031184       0.00344301
Na       2.81000000       2.81100424      11.26596566       1.00000000       0.00000000 NMO Na        0       0.00000000       0.00101661       0.01058015
Cl      -0.00028829       0.00104520      14.04911080       1.00000000       0.00000000 CMO Cl        0      -0.00101134      -0.00056685      -0.00005872
Na      -0.00644365      -0.00234482      16.84693339       1.00000000       0.00000000 NMO Na        0       0.00358534       0.00125055       0.00136628
Cl       2.81000000       2.81187877      19.61347700       1.00000000       0.00000000 CMO Cl        0      -0.00000000       0.01232300      -0.01280227
Na      -0.02997138       2.81036880      19.64160241       1.00000000       0.00000000 NMO Na        0      -0.00032708       0.01127075      -0.00750988
Cl       2.81000000      -0.00361068      16.84466033       1.00000000       0.00000000 CMO Cl        0       0.00000000      -0.00079100       0.01106892
Na       2.81000000       0.00900896      19.59041931       1.00000000       0.00000000 NMO Na        0      -0.00000000       0.00539767       0.03841527
Cl      -0.00162324       2.80516495      16.86403470       1.00000000       0.00000000 CMO Cl        0      -0.00571146       0.00122821      -0.00647320
Na       2.81000000       2.81690541      16.82469317       1.00000000       0.00000000 NMO Na        0       0.00000000       0.00036426       0.00120799
Cl       0.04714065       0.01882142      19.71861754       1.00000000       0.00000000 CMO Cl        0      -0.00741103       0.00848517      -0.00374992
Na      -0.03480972       5.65316284      -0.01419962       1.00000000       0.00000000 NMO Na        0       0.01036500       0.00317162      -0.00273839
Cl       2.81000000       8.49079772       2.81498915       1.00000000       0.00000000 CMO Cl        0      -0.00000000       0.01689513       0.00300946
Na      -0.02191518       8.46628774       2.80961421       1.00000000       0.00000000 NMO Na        0      -0.00126828       0.01021955       0.00170012
Cl       2.81000000       5.59592969       0.08199569       1.00000000       0.00000000 CMO Cl        0       0.00000000      -0.01878769       0.00346579
Na       2.81000000       5.88118690       2.81736616       1.00000000       0.00000000 NMO Na        0      -0.00000000       0.01253763      -0.00641853
Cl       0.01139193       8.41334960       0.01652499       1.00000000       0.00000000 CMO Cl        0      -0.00381156       0.00754233       0.00318546
Na       2.81000000       8.47161075      -0.02262671       1.00000000       0.00000000 NMO Na        0      -0.00000000       0.00265106      -0.00365532
Cl       0.09507514       5.52718665       2.80760542       1.00000000       0.00000000 CMO Cl        0      -0.00381138       0.00262969       0.00144752
Na      -0.01606518       5.63128932       5.63128932       1.00000000       0.00000000 NMO Na        0       0.00522634      -0.00421884      -0.00421884
Cl       2.81000000       8.41333066       8.41333066       1.00000000       0.00000000 CMO Cl        0      -0.00000000       0.00023666       0.00023666
Na      -0.00734449       8.43830645       8.43830645       1.00000000       0.00000000 NMO Na        0      -0.00033055      -0.00122430      -0.00122430
Cl       2.81000000       5.53258386       5.53258386       1.00000000       0.00000000 CMO Cl        0       0.00000000       0.00895215       0.00895215
Na       2.81000000       5.64328269       8.46655911       1.00000000       0.00000000 NMO Na        0       0.00000000       0.00603180       0.00906978
Cl       0.01676696       8.40778213       5.60329993       1.00000000       0.00000000 CMO Cl        0       0.00159009      -0.00523505      -0.00423174
Na       2.81000000       8.46655911       5.64328269       1.00000000       0.00000000 NMO Na        0       0.00000000       0.00906978       0.00603180
Cl       0.01676696       5.60329993       8.40778213       1.00000000       0.00000000 CMO Cl        0       0.00159009      -0.00423174      -0.00523505
Na      -0.00282621       5.62270556      11.24906179       1.00000000       0.00000000 NMO Na        0       0.00065832      -0.00040100       0.00136432
Cl       2.81000000       8.42969905      14.05021926       1.00000000       0.00000000 CMO Cl        0       0.00000000       0.00304731      -0.00135664
Na      -0.00201814       8.43290648      14.04993956       1.00000000       0.00000000 NMO Na        0       0.00006734      -0.00019216       0.00041316
Cl       2.81000000       5.62458375      11.24044452       1.00000000       0.00000000 CMO Cl        0      -0.00000000       0.00518105       0.00352501
Na       2.81000000       5.62704781      14.04863626       1.00000000       0.00000000 NMO Na        0       0.00000000       0.00228695      -0.00139833
Cl       0.00300146       8.42450937      11.23309985       1.00000000       0.00000000 CMO Cl        0      -0.00022243      -0.00034150      -0.00103963
Na       2.81000000       8.43809506      11.24800342       1.00000000       0.00000000 NMO Na        0       0.00000000       0.00168931       0.00133834
Cl       0.00162852       5.61790154      14.05109830       1.00000000       0.00000000 CMO Cl        0      -0.00175663       0.00025601      -0.00029108
Na      -0.00434167       5.62201411      16.85100878       1.00000000       0.00000000 NMO Na        0       0.00094865      -0.00123924      -0.00179793
Cl       2.81000000       8.41841686      19.68136018       1.00000000       0.00000000 CMO Cl        0      -0.00000000       0.01166969      -0.00361904
Na      -0.00684371       8.43942354      19.66224453       1.00000000       0.00000000 NMO Na        0      -0.00013346       0.00271455      -0.00222991
Cl       2.81000000       5.62337132      16.85843867       1.00000000       0.00000000 CMO Cl        0       0.00000000       0.00889240      -0.01550520
Na       2.81000000       5.66028604      19.61632485       1.00000000       0.00000000 NMO Na        0       0.00000000      -0.00039288       0.00052255
Cl       0.00319182       8.42406908      16.86705659       1.00000000       0.00000000 CMO Cl        0      -0.00013294       0.00021556       0.00059924
Na       2.81000000       8.43939680      16.85041759       1.00000000       0.00000000 NMO Na        0      -0.00000000       0.00447472      -0.00581360
Cl       0.02403047       5.60594152      19.68925613       1.00000000       0.00000000 CMO Cl        0      -0.01069398       0.00862694      -0.00384028
Na      -0.00379640      11.24875753      -0.00260095       1.00000000       0.00000000 NMO Na        0      -0.00047927       0.00334832       0.00038250
Cl       2.81000000      14.04850451       2.81159424       1.00000000       0.00000000 CMO Cl        0      -0.00000000      -0.00156737       0.00054777
Na      -0.00592361      14.04896813       2.81011801       1.00000000       0.00000000 NMO Na        0      -0.00136133       0.00082195      -0.00096118
Cl       2.81000000      11.24122333      -0.00374360       1.00000000       0.00000000 CMO Cl        0      -0.00000000       0.00297233      -0.00400044
Na       2.81000000      11.26596566       2.81100424       1.00000000       0.00000000 NMO Na        0       0.00000000       0.01058015       0.00101661
Cl      -0.00028829      14.04911080       0.00104520       1.00000000       0.00000000 CMO Cl        0      -0.00101134      -0.00005872      -0.00056685
Na       2.81000000      14.04441415      -0.00552040       1.00000000       0.00000000 NMO Na        0      -0.00000000       0.00111690      -0.00198301
Cl      -0.00376295      11.24038261       2.81018442       1.00000000       0.00000000 CMO Cl        0      -0.00459701       0.00344301       0.00031184
Na      -0.00282621      11.24906179       5.62270556       1.00000000       0.00000000 NMO Na        0       0.00065832       0.00136432      -0.00040100
Cl       2.81000000      14.05021926       8.42969905       1.00000000       0.00000000 CMO Cl        0      -0.00000000      -0.00135664       0.00304731
Na      -0.00201814      14.04993956       8.43290648       1.00000000       0.00000000 NMO Na        0       0.00006734       0.00041316      -0.00019216
Cl       2.81000000      11.24044452       5.62458375       1.00000000       0.00000000 CMO Cl        0      -0.00000000       0.00352501       0.00518105
Na       2.81000000      11.24800342       8.43809506       1.00000000       0.00000000 NMO Na        0       0.00000000       0.00133834       0.00168931
Cl       0.00162852      14.05109830       5.61790154       1.00000000       0.00000000 CMO Cl        0      -0.00175663      -0.00029108       0.00025601
Na       2.81000000      14.04863626       5.62704781       1.00000000       0.00000000 NMO Na        0       0.00000000      -0.00139833       0.00228695
Cl       0.00300146      11.23309985       8.42450937       1.00000000       0.00000000 CMO Cl        0      -0.00022243      -0.00103963      -0.00034150
Na      -0.00244219      11.24285683      11.24285683       1.00000000       0.00000000 NMO Na        0      -0.00021642       0.00017187       0.00017187
Cl       2.81000000      14.05093009      14.05093009       1.00000000       0.00000000 CMO Cl        0       0.00000000       0.00014515       0.00014515
Na      -0.00194178      14.04949779      14.04949779       1.00000000       0.00000000 NMO Na        0      -0.00011418       0.00043243       0.00043243
Cl       2.81000000      11.23632976      11.23632976       1.00000000       0.00000000 CMO Cl        0       0.00000000       0.00000727       0.00000727
Na       2.81000000      11.24296955      14.04961057       1.00000000       0.00000000 NMO Na        0      -0.00000000       0.00134851      -0.00013019
Cl       0.00169201      14.05020158      11.23780178       1.00000000       0.00000000 CMO Cl        0      -0.00043891      -0.00016207      -0.00029275
Na       2.81000000      14.04961057      11.24296955       1.00000000       0.00000000 NMO Na        0      -0.00000000      -0.00013019       0.00134851
Cl       0.00169201      11.23780178      14.05020158       1.00000000       0.00000000 CMO Cl        0      -0.00043891      -0.00029275      -0.00016207
Na      -0.00235223      11.24261834      16.85705263       1.00000000       0.00000000 NMO Na        0      -0.00015185       0.00055912      -0.00025952
Cl       2.81000000      14.04929552      19.66826961       1.00000000       0.00000000 CMO Cl        0      -0.00000000       0.00092628      -0.00096662
Na      -0.00174147      14.04867012      19.66718294       1.00000000       0.00000000 NMO Na        0       0.00096362       0.00216813      -0.00036209
Cl       2.81000000      11.23664678      16.86288246       1.00000000       0.00000000 CMO Cl        0      -0.00000000       0.00078760      -0.00104178
Na       2.81000000      11.24756368      19.66126370       1.00000000       0.00000000 NMO Na        0      -0.00000000       0.00363583      -0.00261803
Cl       0.00200302      14.05135035      16.86293769       1.00000000       0.00000000 CMO Cl        0      -0.00058200      -0.00069043      -0.00043352
Na       2.81000000      14.04883187      16.85598052       1.00000000       0.00000000 NMO Na        0       0.00000000       0.00314428       0.00107492
Cl       0.00270775      11.23346014      19.67512428       1.00000000       0.00000000 CMO Cl        0      -0.00040548      -0.00063111       0.00009207
Na      -0.00644365      16.84693339      -0.00234482       1.00000000       0.00000000 NMO Na        0       0.00358534       0.00136628       0.00125055
Cl       2.81000000      19.61347700       2.81187877       1.00000000       0.00000000 CMO Cl        0      -0.00000000      -0.01280227       0.01232300
Na      -0.02997138      19.64160241       2.81036880       1.00000000       0.00000000 NMO Na        0      -0.00032708      -0.00750988       0.01127075
Cl       2.81000000      16.84466033      -0.00361068       1.00000000       0.00000000 CMO Cl        0       0.00000000       0.01106892      -0.00079100
Na       2.81000000      16.82469317       2.81690541       1.00000000       0.00000000 NMO Na        0       0.00000000       0.00120799       0.00036426
Cl       0.04714065      19.71861754       0.01882142       1.00000000       0.00000000 CMO Cl        0      -0.00741103      -0.00374992       0.00848517
Na       2.81000000      19.59041931       0.00900896       1.00000000       0.00000000 NMO Na        0      -0.00000000       0.03841527       0.00539767
Cl      -0.00162324      16.86403470       2.80516495       1.00000000       0.00000000 CMO Cl        0      -0.00571146      -0.00647320       0.00122821
Na      -0.00434167      16.85100878       5.62201411       1.00000000       0.00000000 NMO Na        0       0.00094865      -0.00179793      -0.00123924
Cl       2.81000000      19.68136018       8.41841686       1.00000000       0.00000000 CMO Cl        0       0.00000000      -0.00361904       0.01166969
Na      -0.00684371      19.66224453       8.43942354       1.00000000       0.00000000 NMO Na        0      -0.00013346      -0.00222991       0.00271455
Cl       2.81000000      16.85843867       5.62337132       1.00000000       0.00000000 CMO Cl        0       0.00000000      -0.01550520       0.00889240
Na       2.81000000      16.85041759       8.43939680       1.00000000       0.00000000 NMO Na        0       0.00000000      -0.00581360       0.00447472
Cl       0.02403047      19.68925613       5.60594152       1.00000000       0.00000000 CMO Cl        0      -0.01069398      -0.00384028       0.00862694
Na       2.81000000      19.61632485       5.66028604       1.00000000       0.00000000 NMO Na        0       0.00000000       0.00052255      -0.00039288
Cl       0.00319182      16.86705659       8.42406908       1.00000000       0.00000000 CMO Cl        0      -0.00013294       0.00059924       0.00021556
Na      -0.00235223      16.85705263      11.24261834       1.00000000       0.00000000 NMO Na        0      -0.00015185      -0.00025952       0.00055912
Cl       2.81000000      19.66826961      14.04929552       1.00000000       0.00000000 CMO Cl        0       0.00000000      -0.00096662       0.00092628
Na      -0.00174147      19.66718294      14.04867012       1.00000000       0.00000000 NMO Na        0       0.00096362      -0.00036209       0.00216813
Cl       2.81000000      16.86288246      11.23664678       1.00000000       0.00000000 CMO Cl        0       0.00000000      -0.00104178       0.00078760
Na       2.81000000      16.85598052      14.04883187       1.00000000       0.00000000 NMO Na        0       0.00000000       0.00107492       0.00314428
Cl       0.00270775      19.67512428      11.23346014       1.00000000       0.00000000 CMO Cl        0      -0.00040548       0.00009207      -0.00063111
Na       2.81000000      19.66126370      11.24756368       1.00000000       0.00000000 NMO Na        0      -0.00000000      -0.00261803       0.00363583
Cl       0.00200302      16.86293769      14.05135035       1.00000000       0.00000000 CMO Cl        0      -0.00058200      -0.00043352      -0.00069043
Na      -0.00411818      16.85599748      16.85599748       1.00000000       0.00000000 NMO Na        0       0.00110543       0.00335630       0.00335630
Cl       2.81000000      19.72537029      19.72537029       1.00000000       0.00000000 CMO Cl        0       0.00000000      -0.00928915      -0.00928915
Na      -0.00812157      19.66852095      19.66852095       1.00000000       0.00000000 NMO Na        0       0.00382455       0.00849857       0.00849857
Cl       2.81000000      16.87012517      16.87012517       1.00000000       0.00000000 CMO Cl        0      -0.00000000       0.00054004       0.00054004
Na       2.81000000      16.85121405      19.66207750       1.00000000       0.00000000 NMO Na        0       0.00000000       0.00235297       0.00131283
Cl       0.00722053      19.67780076      16.87128889       1.00000000       0.00000000 CMO Cl        0       0.00013079       0.00367117       0.00691259
Na       2.81000000      19.66207750      16.85121405       1.00000000       0.00000000 NMO Na        0       0.00000000       0.00131283       0.00235297
Cl       0.00722053      16.87128889      19.67780076       1.00000000       0.00000000 CMO Cl        0       0.00013079       0.00691259       0.00367117
Na       5.60984718       0.03687705       0.03687705       1.00000000       0.00000000 NMO Na        0      -0.01107489      -0.01426132      -0.01426132
Cl       8.47770429       2.81035128       2.81035128       1.00000000       0.00000000 CMO Cl        0       0.02086668       0.00127048       0.00127048
Na       5.85395824       2.78992313       2.78992313       1.00000000       0.00000000 NMO Na        0       0.03183940       0.01541939       0.01541939
Cl       8.41290650       0.01668779       0.01668779       1.00000000       0.00000000 CMO Cl        0      -0.01855097       0.00773031       0.00773031
Na       8.47366554      -0.02420278       2.81627444       1.00000000       0.00000000 NMO Na        0       0.00403328      -0.00487678      -0.00003165
Cl       5.59703379       2.86346581       0.05323937       1.00000000       0.00000000 CMO Cl        0      -0.04546985      -0.02028203       0.02874844
Na       8.47366554       2.81627444      -0.02420278       1.00000000       0.00000000 NMO Na        0       0.00403328      -0.00003165      -0.00487678
Cl       5.59703379       0.05323937       2.86346581       1.00000000       0.00000000 CMO Cl        0      -0.04546985       0.02874844      -0.02028203
Na       5.65480972      -0.01419962       5.65316284       1.00000000       0.00000000 NMO Na        0      -0.01036500      -0.00273839       0.00317162
Cl       8.41219897       2.81038297       8.41277942       1.00000000       0.00000000 CMO Cl        0      -0.00307526       0.00075490      -0.00362777
Na       5.64191518       2.80961421       8.46628774       1.00000000       0.00000000 NMO Na        0       0.00126828       0.00170012       0.01021955
Cl       8.41858630       0.01548918       5.61412814       1.00000000       0.00000000 CMO Cl        0       0.00650753       0.00054256       0.00321570
Na       8.44088975      -0.00674208       8.43969120       1.00000000       0.00000000 NMO Na        0       0.00676868      -0.00036956       0.00657635
Cl       5.52492486       2.80760542       5.52718665       1.00000000       0.00000000 CMO Cl        0       0.00381138       0.00144752       0.00262969
Na       8.46203398       2.80975554       5.63676768       1.00000000       0.00000000 NMO Na        0       0.00795044       0.00020162       0.00336470
Cl       5.60860807       0.01652499       8.41334960       1.00000000       0.00000000 CMO Cl        0       0.00381156       0.00318546       0.00754233
Na       5.62379640      -0.00260095      11.24875753       1.00000000       0.00000000 NMO Na        0       0.00047927       0.00038250       0.00334832
Cl       8.42896623       2.80961708      14.05099707       1.00000000       0.00000000 CMO Cl        0       0.00226964       0.00024491      -0.00011248
Na       5.62592361       2.81011801      14.04896813       1.00000000       0.00000000 NMO Na        0       0.00136133      -0.00096118       0.00082195
Cl       8.42514297       0.00268333      11.23343235       1.00000000       0.00000000 CMO Cl        0       0.00138967       0.00030957      -0.00024062
Na       8.43432838      -0.00139263      14.04897757       1.00000000       0.00000000 NMO Na        0      -0.00082781      -0.00051956       0.00169098
Cl       5.62376295       2.81018442      11.24038261       1.00000000       0.00000000 CMO Cl        0       0.00459701       0.00031184       0.00344301
Na       8.43817024       2.81002572      11.24776737       1.00000000       0.00000000 NMO Na        0       0.00084916       0.00014659       0.00154207
Cl       5.62028829       0.00104520      14.04911080       1.00000000       0.00000000 CMO Cl        0       0.00101134      -0.00056685      -0.00005872
Na       5.62644365      -0.00234482      16.84693339       1.00000000       0.00000000 NMO Na        0      -0.00358534       0.00125055       0.00136628
Cl       8.41746196       2.80633949      19.67915409       1.00000000       0.00000000 CMO Cl        0       0.00742683       0.00503478      -0.00027102
Na       5.64997138       2.81036880      19.64160241       1.00000000       0.00000000 NMO Na        0       0.00032708       0.01127075      -0.00750988
Cl       8.41938035       0.00163588      16.87099805       1.00000000       0.00000000 CMO Cl        0      -0.00109062      -0.00106902       0.00296157
Na       8.43448367      -0.00652546      19.66873123       1.00000000       0.00000000 NMO Na        0      -0.00812925       0.00071410       0.00666129
Cl       5.62162324       2.80516495      16.86403470       1.00000000       0.00000000 CMO Cl        0       0.00571146       0.00122821      -0.00647320
Na       8.43875607       2.81112297      16.85228850       1.00000000       0.00000000 NMO Na        0       0.00255882      -0.00288951      -0.00282634
Cl       5.57285935       0.01882142      19.71861754       1.00000000       0.00000000 CMO Cl        0       0.00741103       0.00848517      -0.00374992
Na       5.65480972       5.65316284      -0.01419962       1.00000000       0.00000000 NMO Na        0      -0.01036500       0.00317162      -0.00273839
Cl       8.41219897       8.41277942       2.81038297       1.00000000       0.00000000 CMO Cl        0      -0.00307526      -0.00362777       0.00075490
Na       5.64191518       8.46628774       2.80961421       1.00000000       0.00000000 NMO Na        0       0.00126828       0.01021955       0.00170012
Cl       8.41858630       5.61412814       0.01548918       1.00000000       0.00000000 CMO Cl        0       0.00650753       0.00321570       0.00054256
Na       8.46203398       5.63676768       2.80975554       1.00000000       0.00000000 NMO Na        0       0.00795044       0.00336470       0.00020162
Cl       5.60860807       8.41334960       0.01652499       1.00000000       0.00000000 CMO Cl        0       0.00381156       0.00754233       0.00318546
Na       8.44088975       8.43969120      -0.00674208       1.00000000       0.00000000 NMO Na        0       0.00676868       0.00657635      -0.00036956
Cl       5.52492486       5.52718665       2.80760542       1.00000000       0.00000000 CMO Cl        0       0.00381138       0.00262969       0.00144752
Na       5.63606518       5.63128932       5.63128932       1.00000000       0.00000000 NMO Na        0      -0.00522634      -0.00421884      -0.00421884
Cl       8.42208950       8.42258550       8.42258550       1.00000000       0.00000000 CMO Cl        0      -0.00030614      -0.00077798      -0.00077798
Na       5.62734449       8.43830645       8.43830645       1.00000000       0.00000000 NMO Na        0       0.00033055      -0.00122430      -0.00122430
Cl       8.40857901       5.60461065       5.60461065       1.00000000       0.00000000 CMO Cl        0      -0.00494272      -0.00442580      -0.00442580
Na       8.43898650       5.62676349       8.43819499       1.00000000       0.00000000 NMO Na        0      -0.00074368       0.00079535      -0.00036059
Cl       5.60323304       8.40778213       5.60329993       1.00000000       0.00000000 CMO Cl        0      -0.00159009      -0.00523505      -0.00423174
Na       8.43898650       8.43819499       5.62676349       1.00000000       0.00000000 NMO Na        0      -0.00074368      -0.00036059       0.00079535
Cl       5.60323304       5.60329993       8.40778213       1.00000000       0.00000000 CMO Cl        0      -0.00159009      -0.00423174      -0.00523505
Na       5.62282621       5.62270556      11.24906179       1.00000000       0.00000000 NMO Na        0      -0.00065832      -0.00040100       0.00136432
Cl       8.42691217       8.42720107      14.05008026       1.00000000       0.00000000 CMO Cl        0       0.00020912      -0.00017146      -0.00008143
Na       5.62201814       8.43290648      14.04993956       1.00000000       0.00000000 NMO Na        0      -0.00006734      -0.00019216       0.00041316
Cl       8.42417433       5.61710590      11.23318064       1.00000000       0.00000000 CMO Cl        0       0.00012609      -0.00016968      -0.00116916
Na       8.43337757       5.62192193      14.04971811       1.00000000       0.00000000 NMO Na        0      -0.00007019       0.00003483       0.00031025
Cl       5.61699854       8.42450937      11.23309985       1.00000000       0.00000000 CMO Cl        0       0.00022243      -0.00034150      -0.00103963
Na       8.43373506       8.43342499      11.24376262       1.00000000       0.00000000 NMO Na        0      -0.00024994       0.00006610       0.00022503
Cl       5.61837148       5.61790154      14.05109830       1.00000000       0.00000000 CMO Cl        0       0.00175663       0.00025601      -0.00029108
Na       5.62434167       5.62201411      16.85100878       1.00000000       0.00000000 NMO Na        0      -0.00094865      -0.00123924      -0.00179793
Cl       8.42155253       8.42201857      19.67710256       1.00000000       0.00000000 CMO Cl        0      -0.00163127      -0.00148410       0.00085728
Na       5.62684371       8.43942354      19.66224453       1.00000000       0.00000000 NMO Na        0       0.00013346       0.00271455      -0.00222991
Cl       8.42348793       5.61693547      16.86733559       1.00000000       0.00000000 CMO Cl        0      -0.00025509      -0.00008976       0.00126773
Na       8.43728801       5.62458927      19.66304914       1.00000000       0.00000000 NMO Na        0       0.00156262       0.00243868      -0.00336732
Cl       5.61680818       8.42406908      16.86705659       1.00000000       0.00000000 CMO Cl        0       0.00013294       0.00021556       0.00059924
Na       8.43374828       8.43331679      16.85633542       1.00000000       0.00000000 NMO Na        0      -0.00052350      -0.00026439       0.00005003
Cl       5.59596953       5.60594152      19.68925613       1.00000000       0.00000000 CMO Cl        0       0.01069398       0.00862694      -0.00384028