511
Lattice="22.48 0.0 0.0 0.0 22.48 0.0 0.0 0.0 22.48" Properties=species:S:1:pos:R:3:occupancy:R:1:bfactor:R:1:residuenames:S:1:atomtypes:S:1:residuenumbers:I:1:forces:R:3 energy=-2055.8085206248 free_energy=-2055.8085206248 stress="-0.0 -0.0 -0.0 -0.0 -0.0 -0.0 -0.0 -0.0 -0.0" pbc="T T T"
Na      -0.19277521       0.04683094       0.04683094       1.00000000       0.00000000 NMO Na        0      -0.04781398      -0.01491771      -0.01491771
Na       0.01099376       2.73673784       2.73673784       1.00000000       0.00000000 NMO Na        0       0.04494281       0.01017566       0.01017566
Cl       2.81000000       2.08979242       2.08979242       1.00000000       0.00000000 CMO Cl        0       0.00000000       0.31860156       0.31860156
Na       2.81000000      -0.23782957       3.09139667       1.00000000       0.00000000 NMO Na        0      -0.00000000       0.06626047      -0.02891142
Cl      -0.02662838       2.80037872      -0.07973163       1.00000000       0.00000000 CMO Cl        0       0.05177263      -0.04140701       0.00495363
Na       2.81000000       3.09139667      -0.23782957       1.00000000       0.00000000 NMO Na        0      -0.00000000      -0.02891142       0.06626047
Cl      -0.02662838      -0.07973163       2.80037872       1.00000000       0.00000000 CMO Cl        0       0.05177263       0.00495363      -0.04140701
Na      -0.04014341      -0.00245099       5.64841459       1.00000000       0.00000000 NMO Na        0       0.00566741      -0.01100130       0.00352843
Cl       2.81000000       2.81561421       8.46066881       1.00000000       0.00000000 CMO Cl        0       0.00000000       0.00113117       0.00028018
Na      -0.01163206       2.81131448       8.44867953       1.00000000       0.00000000 NMO Na        0       0.00372460      -0.00007486      -0.00113769
Cl       2.81000000       0.00786187       5.68610104       1.00000000       0.00000000 CMO Cl        0       0.00000000      -0.02213593       0.01330786
Na       2.81000000      -0.01331742       8.47169229       1.00000000       0.00000000 NMO Na        0       0.00000000      -0.00073358      -0.00116994
Cl       0.06939004       2.79154550       5.55306390       1.00000000       0.00000000 CMO Cl        0      -0.00526082      -0.01144761       0.00603926
Na       2.81000000       2.79513583       5.76561342       1.00000000       0.00000000 NMO Na        0      -0.00000000      -0.01425687      -0.03270602
Cl      -0.00005093       0.00875681       8.42347265       1.00000000       0.00000000 CMO Cl        0      -0.00863597      -0.00238988       0.01236691
Na      -0.00555112      -0.00053218      11.24246963       1.00000000       0.00000000 NMO Na        0      -0.00231381       0.00170959      -0.00034673
Cl       2.81000000       2.81319334      14.04792531       1.00000000       0.00000000 CMO Cl        0       0.00000000       0.00452383      -0.00062690
Na      -0.00456202       2.81223573      14.04259324       1.00000000       0.00000000 NMO Na        0      -0.00270890      -0.00044456      -0.00690812
Cl       2.81000000      -0.00249302      11.24253485       1.00000000       0.00000000 CMO Cl        0      -0.00000000      -0.00221977       0.00413056
Na       2.81000000      -0.00199638      14.02753438       1.00000000       0.00000000 NMO Na        0       0.00000000      -0.00310857      -0.01583253
Cl      -0.00130783       2.80918575      11.24096522       1.00000000       0.00000000 CMO Cl        0      -0.00230362       0.00004005       0.00319303
Na       2.81000000       2.81457646      11.25100003       1.00000000       0.00000000 NMO Na        0      -0.00000000       0.00345727      -0.00064353
Cl      -0.00305671      -0.00013355      14.05000996       1.00000000       0.00000000 CMO Cl        0      -0.00524489      -0.00037175      -0.00313263
Na      -0.01999233       0.00069499      16.82679901       1.00000000       0.00000000 NMO Na        0      -0.00387378      -0.00399464      -0.01506959
Cl       2.81000000       2.73942158      19.63860436       1.00000000       0.00000000 CMO Cl        0       0.00000000      -0.00489825       0.02853905
Na      -0.04931989       2.82307427      19.62381846       1.00000000       0.00000000 NMO Na        0       0.01120162       0.00959599       0.00032441
Cl       2.81000000      -0.00962119      16.79897919       1.00000000       0.00000000 CMO Cl        0       0.00000000      -0.00141876      -0.01567740
Na       2.81000000      -0.00847597      19.41253325       1.00000000       0.00000000 NMO Na        0       0.00000000       0.00891313      -0.01862266
Cl       0.00519465       2.79460616      16.87095200       1.00000000       0.00000000 CMO Cl        0      -0.00311578      -0.00455117      -0.01162703
Na       2.81000000       2.83150358      16.81412945       1.00000000       0.00000000 NMO Na        0      -0.00000000       0.00668123      -0.00762947
Cl       0.09813989       0.00639589      19.76603119       1.00000000       0.00000000 CMO Cl        0       0.00123491       0.00178942      -0.00162057
Na      -0.04014341       5.64841459      -0.00245099       1.00000000       0.00000000 NMO Na        0       0.00566741       0.00352843      -0.01100130
Cl       2.81000000       8.46066881       2.81561421       1.00000000       0.00000000 CMO Cl        0       0.00000000       0.00028018       0.00113117
Na      -0.01163206       8.44867953       2.81131448       1.00000000       0.00000000 NMO Na        0       0.00372460      -0.00113769      -0.00007486
Cl       2.81000000       5.68610104       0.00786187       1.00000000       0.00000000 CMO Cl        0       0.00000000       0.01330786      -0.02213593
Na       2.81000000       5.76561342       2.79513583       1.00000000       0.00000000 NMO Na        0      -0.00000000      -0.03270602      -0.01425687
Cl      -0.00005093       8.42347265       0.00875681       1.00000000       0.00000000 CMO Cl        0      -0.00863597       0.01236691      -0.00238988
Na       2.81000000       8.47169229      -0.01331742       1.00000000       0.00000000 NMO Na        0      -0.00000000      -0.00116994      -0.00073358
Cl       0.06939004       5.55306390       2.79154550       1.00000000       0.00000000 CMO Cl        0      -0.00526082       0.00603926      -0.01144761
Na      -0.01148729       5.61878361       5.61878361       1.00000000       0.00000000 NMO Na        0       0.00702103      -0.01556769      -0.01556769
Cl       2.81000000       8.41722923       8.41722923       1.00000000       0.00000000 CMO Cl        0       0.00000000       0.00153325       0.00153325
Na      -0.00546038       8.43487326       8.43487326       1.00000000       0.00000000 NMO Na        0       0.00123721      -0.00573755      -0.00573755
Cl       2.81000000       5.54852452       5.54852452       1.00000000       0.00000000 CMO Cl        0       0.00000000       0.01130813       0.01130813
Na       2.81000000       5.63211350       8.44513035       1.00000000       0.00000000 NMO Na        0       0.00000000       0.00068202      -0.00273750
Cl       0.01054050       8.41529765       5.60963033       1.00000000       0.00000000 CMO Cl        0      -0.00044731      -0.00734449      -0.00527166
Na       2.81000000       8.44513035       5.63211350       1.00000000       0.00000000 NMO Na        0      -0.00000000      -0.00273750       0.00068202
Cl       0.01054050       5.60963033       8.41529765       1.00000000       0.00000000 CMO Cl        0      -0.00044731      -0.00527166      -0.00734449
Na      -0.00203591       5.62274468      11.24301229       1.00000000       0.00000000 NMO Na        0       0.00127658       0.00008975      -0.00389505
Cl       2.81000000       8.42786381      14.05257989       1.00000000       0.00000000 CMO Cl        0       0.00000000       0.00244305      -0.00123323
Na      -0.00240946       8.43290397      14.04791495       1.00000000       0.00000000 NMO Na        0      -0.00026541       0.00028822      -0.00120401
Cl       2.81000000       5.62274895      11.24080126       1.00000000       0.00000000 CMO Cl        0       0.00000000       0.00273213       0.00249577
Na       2.81000000       5.62864474      14.04361653       1.00000000       0.00000000 NMO Na        0      -0.00000000       0.00546467      -0.00809725
Cl       0.00242448       8.42652651      11.23733018       1.00000000       0.00000000 CMO Cl        0      -0.00066151       0.00045490       0.00127040
Na       2.81000000       8.43492077      11.24275443       1.00000000       0.00000000 NMO Na        0      -0.00000000      -0.00082362      -0.00386348
Cl       0.00260493       5.61546588      14.05528567       1.00000000       0.00000000 CMO Cl        0      -0.00055035      -0.00082527       0.00151548
Na      -0.00654887       5.62643832      16.84985827       1.00000000       0.00000000 NMO Na        0      -0.00258744       0.00540216      -0.00662302
Cl       2.81000000       8.43303625      19.66692323       1.00000000       0.00000000 CMO Cl        0       0.00000000       0.02339335      -0.01391876
Na      -0.00558843       8.43893583      19.66801498       1.00000000       0.00000000 NMO Na        0       0.00007725       0.00428274       0.00136625
Cl       2.81000000       5.61491082      16.86503336       1.00000000       0.00000000 CMO Cl        0       0.00000000       0.00366621      -0.01927726
Na       2.81000000       5.68834352      19.61075098       1.00000000       0.00000000 NMO Na        0      -0.00000000      -0.00393424       0.01000557
Cl       0.00354248       8.42321616      16.86619598       1.00000000       0.00000000 CMO Cl        0       0.00009613      -0.00108683      -0.00004694
Na       2.81000000       8.44099638      16.84922140       1.00000000       0.00000000 NMO Na        0       0.00000000       0.01140519      -0.00896091
Cl       0.02996240       5.60401777      19.68205883       1.00000000       0.00000000 CMO Cl        0      -0.01600673       0.00820351      -0.01843298
Na      -0.00555112      11.24246963      -0.00053218       1.00000000       0.00000000 NMO Na        0      -0.00231381      -0.00034673       0.00170959
Cl       2.81000000      14.04792531       2.81319334       1.00000000       0.00000000 CMO Cl        0       0.00000000      -0.00062690       0.00452383
Na      -0.00456202      14.04259324       2.81223573       1.00000000       0.00000000 NMO Na        0      -0.00270890      -0.00690812      -0.00044456
Cl       2.81000000      11.24253485      -0.00249302       1.00000000       0.00000000 CMO Cl        0       0.00000000       0.00413056      -0.00221977
Na       2.81000000      11.25100003       2.81457646       1.00000000       0.00000000 NMO Na        0      -0.00000000      -0.00064353       0.00345727
Cl      -0.00305671      14.05000996      -0.00013355       1.00000000       0.00000000 CMO Cl        0      -0.00524489      -0.00313263      -0.00037175
Na       2.81000000      14.02753438      -0.00199638       1.00000000       0.00000000 NMO Na        0       0.00000000      -0.01583253      -0.00310857
Cl      -0.00130783      11.24096522       2.80918575       1.00000000       0.00000000 CMO Cl        0      -0.00230362       0.00319303       0.00004005
Na      -0.00203591      11.24301229       5.62274468       1.00000000       0.00000000 NMO Na        0       0.00127658      -0.00389505       0.00008975
Cl       2.81000000      14.05257989       8.42786381       1.00000000       0.00000000 CMO Cl        0       0.00000000      -0.00123323       0.00244305
Na      -0.00240946      14.04791495       8.43290397       1.00000000       0.00000000 NMO Na        0      -0.00026541      -0.00120401       0.00028822
Cl       2.81000000      11.24080126       5.62274895       1.00000000       0.00000000 CMO Cl        0       0.00000000       0.00249577       0.00273213
Na       2.81000000      11.24275443       8.43492077       1.00000000       0.00000000 NMO Na        0       0.00000000      -0.00386348      -0.00082362
Cl       0.00260493      14.05528567       5.61546588       1.00000000       0.00000000 CMO Cl        0      -0.00055035       0.00151548      -0.00082527
Na       2.81000000      14.04361653       5.62864474       1.00000000       0.00000000 NMO Na        0       0.00000000      -0.00809725       0.00546467
Cl       0.00242448      11.23733018       8.42652651       1.00000000       0.00000000 CMO Cl        0      -0.00066151       0.00127040       0.00045490
Na      -0.00220625      11.24100009      11.24100009       1.00000000       0.00000000 NMO Na        0      -0.00011072      -0.00094860      -0.00094860
Cl       2.81000000      14.05331998      14.05331998       1.00000000       0.00000000 CMO Cl        0       0.00000000       0.00047493       0.00047493
Na      -0.00249676      14.04744388      14.04744388       1.00000000       0.00000000 NMO Na        0      -0.00030715      -0.00041757      -0.00041757
Cl       2.81000000      11.23838551      11.23838551       1.00000000       0.00000000 CMO Cl        0       0.00000000       0.00044296       0.00044296
Na       2.81000000      11.24088471      14.04750398       1.00000000       0.00000000 NMO Na        0      -0.00000000       0.00056746      -0.00198363
Cl       0.00183876      14.05180647      11.23948119       1.00000000       0.00000000 CMO Cl        0      -0.00031065       0.00069909       0.00020845
Na       2.81000000      14.04750398      11.24088471       1.00000000       0.00000000 NMO Na        0      -0.00000000      -0.00198363       0.00056746
Cl       0.00183876      11.23948119      14.05180647       1.00000000       0.00000000 CMO Cl        0      -0.00031065       0.00020845       0.00069909
Na      -0.00224968      11.24034346      16.85713865       1.00000000       0.00000000 NMO Na        0      -0.00005430      -0.00055515       0.00050065
Cl       2.81000000      14.04995867      19.66558438       1.00000000       0.00000000 CMO Cl        0      -0.00000000      -0.00394798      -0.00711425
Na      -0.00275715      14.04205513      19.66735324       1.00000000       0.00000000 NMO Na        0       0.00069535      -0.00136256       0.00042667
Cl       2.81000000      11.23946710      16.86083349       1.00000000       0.00000000 CMO Cl        0       0.00000000       0.00278667      -0.00433130
Na       2.81000000      11.24275370      19.66244993       1.00000000       0.00000000 NMO Na        0       0.00000000       0.00390979      -0.00408188
Cl       0.00305338      14.05610468      16.86511214       1.00000000       0.00000000 CMO Cl        0      -0.00014868       0.00153717       0.00082323
Na       2.81000000      14.04287975      16.85256725       1.00000000       0.00000000 NMO Na        0       0.00000000      -0.00147453      -0.00220803
Cl       0.00198382      11.23796448      19.67285267       1.00000000       0.00000000 CMO Cl        0      -0.00206959       0.00078432       0.00011151
Na      -0.01999233      16.82679901       0.00069499       1.00000000       0.00000000 NMO Na        0      -0.00387378      -0.01506959      -0.00399464
Cl       2.81000000      19.63860436       2.73942158       1.00000000       0.00000000 CMO Cl        0       0.00000000       0.02853905      -0.00489825
Na      -0.04931989      19.62381846       2.82307427       1.00000000       0.00000000 NMO Na        0       0.01120162       0.00032441       0.00959599
Cl       2.81000000      16.79897919      -0.00962119       1.00000000       0.00000000 CMO Cl        0       0.00000000      -0.01567740      -0.00141876
Na       2.81000000      16.81412945       2.83150358       1.00000000       0.00000000 NMO Na        0      -0.00000000      -0.00762947       0.00668123
Cl       0.09813989      19.76603119       0.00639589       1.00000000       0.00000000 CMO Cl        0       0.00123491      -0.00162057       0.00178942
Na       2.81000000      19.41253325      -0.00847597       1.00000000       0.00000000 NMO Na        0       0.00000000      -0.01862266       0.00891313
Cl       0.00519465      16.87095200       2.79460616       1.00000000       0.00000000 CMO Cl        0      -0.00311578      -0.01162703      -0.00455117
Na      -0.00654887      16.84985827       5.62643832       1.00000000       0.00000000 NMO Na        0      -0.00258744      -0.00662302       0.00540216
Cl       2.81000000      19.66692323       8.43303625       1.00000000       0.00000000 CMO Cl        0       0.00000000      -0.01391876       0.02339335
Na      -0.00558843      19.66801498       8.43893583       1.00000000       0.00000000 NMO Na        0       0.00007725       0.00136625       0.00428274
Cl       2.81000000      16.86503336       5.61491082       1.00000000       0.00000000 CMO Cl        0       0.00000000      -0.01927726       0.00366621
Na       2.81000000      16.84922140       8.44099638       1.00000000       0.00000000 NMO Na        0      -0.00000000      -0.00896091       0.01140519
Cl       0.02996240      19.68205883       5.60401777       1.00000000       0.00000000 CMO Cl        0      -0.01600673      -0.01843298       0.00820351
Na       2.81000000      19.61075098       5.68834352       1.00000000       0.00000000 NMO Na        0      -0.00000000       0.01000557      -0.00393424
Cl       0.00354248      16.86619598       8.42321616       1.00000000       0.00000000 CMO Cl        0       0.00009613      -0.00004694      -0.00108683
Na      -0.00224968      16.85713865      11.24034346       1.00000000       0.00000000 NMO Na        0      -0.00005430       0.00050065      -0.00055515
Cl       2.81000000      19.66558438      14.04995867       1.00000000       0.00000000 CMO Cl        0      -0.00000000      -0.00711425      -0.00394798
Na      -0.00275715      19.66735324      14.04205513       1.00000000       0.00000000 NMO Na        0       0.00069535       0.00042667      -0.00136256
Cl       2.81000000      16.86083349      11.23946710       1.00000000       0.00000000 CMO Cl        0      -0.00000000      -0.00433130       0.00278667
Na       2.81000000      16.85256725      14.04287975       1.00000000       0.00000000 NMO Na        0      -0.00000000      -0.00220803      -0.00147453
Cl       0.00198382      19.67285267      11.23796448       1.00000000       0.00000000 CMO Cl        0      -0.00206959       0.00011151       0.00078432
Na       2.81000000      19.66244993      11.24275370       1.00000000       0.00000000 NMO Na        0       0.00000000      -0.00408188       0.00390979
Cl       0.00305338      16.86511214      14.05610468       1.00000000       0.00000000 CMO Cl        0      -0.00014868       0.00082323       0.00153717
Na      -0.00730558      16.85201165      16.85201165       1.00000000       0.00000000 NMO Na        0      -0.00098982       0.00205509       0.00205509
Cl       2.81000000      19.75599963      19.75599963       1.00000000       0.00000000 CMO Cl        0      -0.00000000      -0.01020618      -0.01020618
Na      -0.01747378      19.66203252      19.66203252       1.00000000       0.00000000 NMO Na        0       0.00511761       0.00722952       0.00722952
Cl       2.81000000      16.87628419      16.87628419       1.00000000       0.00000000 CMO Cl        0      -0.00000000      -0.00016894      -0.00016894
Na       2.81000000      16.82650878      19.64751050       1.00000000       0.00000000 NMO Na        0       0.00000000      -0.01244154      -0.01065408
Cl       0.01584247      19.68579224      16.88154508       1.00000000       0.00000000 CMO Cl        0       0.00248275       0.00752485       0.00959364
Na       2.81000000      19.64751050      16.82650878       1.00000000       0.00000000 NMO Na        0       0.00000000      -0.01065408      -0.01244154
Cl       0.01584247      16.88154508      19.68579224       1.00000000       0.00000000 CMO Cl        0       0.00248275       0.00959364       0.00752485
Na       5.81277521       0.04683094       0.04683094       1.00000000       0.00000000 NMO Na        0       0.04781398      -0.01491771      -0.01491771
Cl       8.41742125       2.79509132       2.79509132       1.00000000       0.00000000 CMO Cl        0      -0.01972396      -0.01095698      -0.01095698
Na       5.60900624       2.73673784       2.73673784       1.00000000       0.00000000 NMO Na        0      -0.04494281       0.01017566       0.01017566
Cl       8.46182696       0.00146293       0.00146293       1.00000000       0.00000000 CMO Cl        0       0.02138403      -0.00176359      -0.00176359
Na       8.47996013      -0.01199457       2.83454192       1.00000000       0.00000000 NMO Na        0       0.00108882       0.00257306       0.00748897
Cl       5.64662838       2.80037872      -0.07973163       1.00000000       0.00000000 CMO Cl        0      -0.05177263      -0.04140701       0.00495363
Na       8.47996013       2.83454192      -0.01199457       1.00000000       0.00000000 NMO Na        0       0.00108882       0.00748897       0.00257306
Cl       5.64662838      -0.07973163       2.80037872       1.00000000       0.00000000 CMO Cl        0      -0.05177263       0.00495363      -0.04140701
Na       5.66014341      -0.00245099       5.64841459       1.00000000       0.00000000 NMO Na        0      -0.00566741      -0.01100130       0.00352843
Cl       8.41622581       2.80935562       8.41685876       1.00000000       0.00000000 CMO Cl        0      -0.00190465       0.00147497      -0.00369255
Na       5.63163206       2.81131448       8.44867953       1.00000000       0.00000000 NMO Na        0      -0.00372460      -0.00007486      -0.00113769
Cl       8.42375767       0.00641878       5.61859156       1.00000000       0.00000000 CMO Cl        0       0.01320855      -0.00930330       0.00354249
Na       8.43983052      -0.00227529       8.43796617       1.00000000       0.00000000 NMO Na        0       0.00617179       0.00467378       0.00511539
Cl       5.55060996       2.79154550       5.55306390       1.00000000       0.00000000 CMO Cl        0       0.00526082      -0.01144761       0.00603926
Na       8.43484056       2.81522244       5.61771256       1.00000000       0.00000000 NMO Na        0      -0.01537743      -0.00046077      -0.01353034
Cl       5.62005093       0.00875681       8.42347265       1.00000000       0.00000000 CMO Cl        0       0.00863597      -0.00238988       0.01236691
Na       5.62555112      -0.00053218      11.24246963       1.00000000       0.00000000 NMO Na        0       0.00231381       0.00170959      -0.00034673
Cl       8.42585042       2.80761381      14.05538789       1.00000000       0.00000000 CMO Cl        0       0.00229724      -0.00052618       0.00002480
Na       5.62456202       2.81223573      14.04259324       1.00000000       0.00000000 NMO Na        0       0.00270890      -0.00044456      -0.00690812
Cl       8.42777294       0.00084090      11.23801223       1.00000000       0.00000000 CMO Cl        0       0.00266520      -0.00059053       0.00112805
Na       8.43765872      -0.00016444      14.04334364       1.00000000       0.00000000 NMO Na        0       0.00102589      -0.00023075      -0.00182879
Cl       5.62130783       2.80918575      11.24096522       1.00000000       0.00000000 CMO Cl        0       0.00230362       0.00004005       0.00319303
Na       8.43554452       2.81107728      11.24233006       1.00000000       0.00000000 NMO Na        0      -0.00064356       0.00088122      -0.00260674
Cl       5.62305671      -0.00013355      14.05000996       1.00000000       0.00000000 CMO Cl        0       0.00524489      -0.00037175      -0.00313263
Na       5.63999233       0.00069499      16.82679901       1.00000000       0.00000000 NMO Na        0       0.00387378      -0.00399464      -0.01506959
Cl       8.42778376       2.79628890      19.66703004       1.00000000       0.00000000 CMO Cl        0       0.00894652       0.00097086      -0.00719285
Na       5.66931989       2.82307427      19.62381846       1.00000000       0.00000000 NMO Na        0      -0.01120162       0.00959599       0.00032441
Cl       8.41171774      -0.00060252      16.87724675       1.00000000       0.00000000 CMO Cl        0      -0.00635811      -0.00172267       0.00616065
Na       8.45472789      -0.00031669      19.65985647       1.00000000       0.00000000 NMO Na        0       0.00759213       0.00056589      -0.00027876
Cl       5.61480535       2.79460616      16.87095200       1.00000000       0.00000000 CMO Cl        0       0.00311578      -0.00455117      -0.01162703
Na       8.44272987       2.81602211      16.84923507       1.00000000       0.00000000 NMO Na        0       0.01329002       0.00010859      -0.01097984
Cl       5.52186011       0.00639589      19.76603119       1.00000000       0.00000000 CMO Cl        0      -0.00123491       0.00178942      -0.00162057
Na       5.66014341       5.64841459      -0.00245099       1.00000000       0.00000000 NMO Na        0      -0.00566741       0.00352843      -0.01100130
Cl       8.41622581       8.41685876       2.80935562       1.00000000       0.00000000 CMO Cl        0      -0.00190465      -0.00369255       0.00147497
Na       5.63163206       8.44867953       2.81131448       1.00000000       0.00000000 NMO Na        0      -0.00372460      -0.00113769      -0.00007486
Cl       8.42375767       5.61859156       0.00641878       1.00000000       0.00000000 CMO Cl        0       0.01320855       0.00354249      -0.00930330
Na       8.43484056       5.61771256       2.81522244       1.00000000       0.00000000 NMO Na        0      -0.01537743      -0.01353034      -0.00046077
Cl       5.62005093       8.42347265       0.00875681       1.00000000       0.00000000 CMO Cl        0       0.00863597       0.01236691      -0.00238988
Na       8.43983052       8.43796617      -0.00227529       1.00000000       0.00000000 NMO Na        0       0.00617179       0.00511539       0.00467378
Cl       5.55060996       5.55306390       2.79154550       1.00000000       0.00000000 CMO Cl        0       0.00526082       0.00603926      -0.01144761
Na       5.63148729       5.61878361       5.61878361       1.00000000       0.00000000 NMO Na        0      -0.00702103      -0.01556769      -0.01556769
Cl       8.42490240       8.42610227       8.42610227       1.00000000       0.00000000 CMO Cl        0       0.00191583       0.00169092       0.00169092
Na       5.62546038       8.43487326       8.43487326       1.00000000       0.00000000 NMO Na        0      -0.00123721      -0.00573755      -0.00573755
Cl       8.41832055       5.61217233       5.61217233       1.00000000       0.00000000 CMO Cl        0      -0.00489946      -0.00387867      -0.00387867
Na       8.43641151       5.62469405       8.43473381       1.00000000       0.00000000 NMO Na        0      -0.00348033      -0.00006799      -0.00361624
Cl       5.60945950       8.41529765       5.60963033       1.00000000       0.00000000 CMO Cl        0       0.00044731      -0.00734449      -0.00527166
Na       8.43641151       8.43473381       5.62469405       1.00000000       0.00000000 NMO Na        0      -0.00348033      -0.00361624      -0.00006799
Cl       5.60945950       5.60963033       8.41529765       1.00000000       0.00000000 CMO Cl        0       0.00044731      -0.00527166      -0.00734449
Na       5.62203591       5.62274468      11.24301229       1.00000000       0.00000000 NMO Na        0      -0.00127658       0.00008975      -0.00389505
Cl       8.42688111       8.42741852      14.05167601       1.00000000       0.00000000 CMO Cl        0      -0.00000930      -0.00051848       0.00105278
Na       5.62240946       8.43290397      14.04791495       1.00000000       0.00000000 NMO Na        0       0.00026541       0.00028822      -0.00120401
Cl       8.42552082       5.61705905      11.23750250       1.00000000       0.00000000 CMO Cl        0       0.00038957      -0.00010919       0.00107290
Na       8.43390792       5.62308934      14.04711692       1.00000000       0.00000000 NMO Na        0      -0.00005245       0.00064855      -0.00143636
Cl       5.61757552       8.42652651      11.23733018       1.00000000       0.00000000 CMO Cl        0       0.00066151       0.00045490       0.00127040
Na       8.43309354       8.43232649      11.24125468       1.00000000       0.00000000 NMO Na        0      -0.00051897      -0.00043611      -0.00122677
Cl       5.61739507       5.61546588      14.05528567       1.00000000       0.00000000 CMO Cl        0       0.00055035      -0.00082527       0.00151548
Na       5.62654887       5.62643832      16.84985827       1.00000000       0.00000000 NMO Na        0       0.00258744       0.00540216      -0.00662302
Cl       8.42268373       8.42265410      19.67345759       1.00000000       0.00000000 CMO Cl        0      -0.00130014      -0.00150315      -0.00034305
Na       5.62558843       8.43893583      19.66801498       1.00000000       0.00000000 NMO Na        0      -0.00007725       0.00428274       0.00136625
Cl       8.42130257       5.61390820      16.86796136       1.00000000       0.00000000 CMO Cl        0      -0.00303984      -0.00099749       0.00177981
Na       8.43645560       5.62541001      19.66698098       1.00000000       0.00000000 NMO Na        0       0.00449208       0.00546798      -0.00349625
Cl       5.61645752       8.42321616      16.86619598       1.00000000       0.00000000 CMO Cl        0      -0.00009613      -0.00108683      -0.00004694
Na       8.43393284       8.43338160      16.85682571       1.00000000       0.00000000 NMO Na        0      -0.00046627      -0.00001535       0.00042009
Cl       5.59003760       5.60401777      19.68205883       1.00000000       0.00000000 CMO Cl        0       0.01600673       0.00820351      -0.01843298