511
Lattice="22.48 0.0 0.0 0.0 22.48 0.0 0.0 0.0 22.48" Properties=species:S:1:pos:R:3:occupancy:R:1:bfactor:R:1:residuenames:S:1:atomtypes:S:1:residuenumbers:I:1:forces:R:3 energy=-2056.1542115166 free_energy=-2056.1542115166 stress="-0.0 -0.0 -0.0 -0.0 -0.0 -0.0 -0.0 -0.0 -0.0" pbc="T T T"
Na      -0.25239183       0.00000000       0.00000000       1.00000000       0.00000000 NMO Na        0       0.01359201      -0.00000000      -0.00000000
Na      -0.01684985       2.82684985       2.82684985       1.00000000       0.00000000 NMO Na        0       0.01566027      -0.01566027      -0.01566027
Cl       2.81000000       2.71916325       2.71916325       1.00000000       0.00000000 CMO Cl        0       0.00000000       0.01592419       0.01592419
Na       2.81000000       0.00000000       3.06239183       1.00000000       0.00000000 NMO Na        0      -0.00000000      -0.00000000      -0.01359201
Cl       0.09083675       2.71916325       0.00000000       1.00000000       0.00000000 CMO Cl        0      -0.01592419       0.01592419       0.00000000
Na       2.81000000       3.06239183       0.00000000       1.00000000       0.00000000 NMO Na        0      -0.00000000      -0.01359201      -0.00000000
Cl       0.09083675       0.00000000       2.71916325       1.00000000       0.00000000 CMO Cl        0      -0.01592419       0.00000000       0.01592419
Na      -0.02211695      -0.00000000       5.65491193       1.00000000       0.00000000 NMO Na        0       0.00145165      -0.00000000      -0.00408699
Cl       2.81000000       2.81244946       8.42673282       1.00000000       0.00000000 CMO Cl        0       0.00000000       0.00508774       0.01247338
Na      -0.00252670       2.81252670       8.43924822       1.00000000       0.00000000 NMO Na        0       0.00115712      -0.00115712      -0.00346498
Cl       2.81000000       0.00000000       5.66950521       1.00000000       0.00000000 CMO Cl        0       0.00000000       0.00000000       0.03882524
Na       2.81000000      -0.00000000       8.45270811       1.00000000       0.00000000 NMO Na        0      -0.00000000       0.00000000       0.00528779
Cl       0.01653027       2.79346973       5.59625685       1.00000000       0.00000000 CMO Cl        0      -0.00187703       0.00187703       0.01080117
Na       2.81000000       2.83211695       5.65491193       1.00000000       0.00000000 NMO Na        0      -0.00000000      -0.00145165      -0.00408699
Cl      -0.00244946       0.00000000       8.42673282       1.00000000       0.00000000 CMO Cl        0      -0.00508774       0.00000000       0.01247338
Na      -0.00326192       0.00000000      11.24000000       1.00000000       0.00000000 NMO Na        0      -0.00429230       0.00000000      -0.00000000
Cl       2.81000000       2.81244946      14.05326718       1.00000000       0.00000000 CMO Cl        0       0.00000000       0.00508774      -0.01247338
Na      -0.00252670       2.81252670      14.04075178       1.00000000       0.00000000 NMO Na        0       0.00115712      -0.00115712       0.00346498
Cl       2.81000000       0.00000000      11.24000000       1.00000000       0.00000000 CMO Cl        0       0.00000000      -0.00000000       0.00000000
Na       2.81000000      -0.00000000      14.02729189       1.00000000       0.00000000 NMO Na        0       0.00000000       0.00000000      -0.00528779
Cl       0.00192374       2.80807626      11.24000000       1.00000000       0.00000000 CMO Cl        0      -0.00108616       0.00108616       0.00000000
Na       2.81000000       2.81326192      11.24000000       1.00000000       0.00000000 NMO Na        0      -0.00000000       0.00429230      -0.00000000
Cl      -0.00244946      -0.00000000      14.05326718       1.00000000       0.00000000 CMO Cl        0      -0.00508774       0.00000000      -0.01247338
Na      -0.02211695       0.00000000      16.82508807       1.00000000       0.00000000 NMO Na        0       0.00145165      -0.00000000       0.00408699
Cl       2.81000000       2.71916325      19.76083675       1.00000000       0.00000000 CMO Cl        0       0.00000000       0.01592419      -0.01592419
Na      -0.01684985       2.82684985      19.65315015       1.00000000       0.00000000 NMO Na        0       0.01566027      -0.01566027       0.01566027
Cl       2.81000000       0.00000000      16.81049479       1.00000000       0.00000000 CMO Cl        0       0.00000000       0.00000000      -0.03882524
Na       2.81000000       0.00000000      19.41760817       1.00000000       0.00000000 NMO Na        0      -0.00000000      -0.00000000       0.01359201
Cl       0.01653027       2.79346973      16.88374315       1.00000000       0.00000000 CMO Cl        0      -0.00187703       0.00187703      -0.01080117
Na       2.81000000       2.83211695      16.82508807       1.00000000       0.00000000 NMO Na        0       0.00000000      -0.00145165       0.00408699
Cl       0.09083675       0.00000000      19.76083675       1.00000000       0.00000000 CMO Cl        0      -0.01592419       0.00000000      -0.01592419
Na      -0.02211695       5.65491193      -0.00000000       1.00000000       0.00000000 NMO Na        0       0.00145165      -0.00408699      -0.00000000
Cl       2.81000000       8.42673282       2.81244946       1.00000000       0.00000000 CMO Cl        0       0.00000000       0.01247338       0.00508774
Na      -0.00252670       8.43924822       2.81252670       1.00000000       0.00000000 NMO Na        0       0.00115712      -0.00346498      -0.00115712
Cl       2.81000000       5.66950521       0.00000000       1.00000000       0.00000000 CMO Cl        0       0.00000000       0.03882524       0.00000000
Na       2.81000000       5.65491193       2.83211695       1.00000000       0.00000000 NMO Na        0      -0.00000000      -0.00408699      -0.00145165
Cl      -0.00244946       8.42673282       0.00000000       1.00000000       0.00000000 CMO Cl        0      -0.00508774       0.01247338       0.00000000
Na       2.81000000       8.45270811      -0.00000000       1.00000000       0.00000000 NMO Na        0      -0.00000000       0.00528779       0.00000000
Cl       0.01653027       5.59625685       2.79346973       1.00000000       0.00000000 CMO Cl        0      -0.00187703       0.01080117       0.00187703
Na      -0.00776455       5.63087278       5.63087278       1.00000000       0.00000000 NMO Na        0       0.00278564      -0.00919931      -0.00919931
Cl       2.81000000       8.42540799       8.42540799       1.00000000       0.00000000 CMO Cl        0       0.00000000       0.00137551       0.00137551
Na      -0.00207896       8.43375660       8.43375660       1.00000000       0.00000000 NMO Na        0       0.00052824      -0.00171438      -0.00171438
Cl       2.81000000       5.60042019       5.60042019       1.00000000       0.00000000 CMO Cl        0       0.00000000       0.00981549       0.00981549
Na       2.81000000       5.62641378       8.43818094       1.00000000       0.00000000 NMO Na        0      -0.00000000       0.00105728      -0.00179003
Cl       0.00318161       8.42335353       5.61472818       1.00000000       0.00000000 CMO Cl        0      -0.00150391       0.00034393       0.00053829
Na       2.81000000       8.43818094       5.62641378       1.00000000       0.00000000 NMO Na        0      -0.00000000      -0.00179003       0.00105728
Cl       0.00318161       5.61472818       8.42335353       1.00000000       0.00000000 CMO Cl        0      -0.00150391       0.00053829       0.00034393
Na      -0.00177874       5.62308615      11.24000000       1.00000000       0.00000000 NMO Na        0       0.00112744      -0.00176402      -0.00000000
Cl       2.81000000       8.42540799      14.05459201       1.00000000       0.00000000 CMO Cl        0       0.00000000       0.00137551      -0.00137551
Na      -0.00207896       8.43375660      14.04624340       1.00000000       0.00000000 NMO Na        0       0.00052824      -0.00171438       0.00171438
Cl       2.81000000       5.61754436      11.24000000       1.00000000       0.00000000 CMO Cl        0       0.00000000       0.00476833       0.00000000
Na       2.81000000       5.62641378      14.04181906       1.00000000       0.00000000 NMO Na        0       0.00000000       0.00105728       0.00179003
Cl       0.00166615       8.42755681      11.24000000       1.00000000       0.00000000 CMO Cl        0      -0.00048229       0.00102835      -0.00000000
Na       2.81000000       8.43276260      11.24000000       1.00000000       0.00000000 NMO Na        0      -0.00000000      -0.00090841       0.00000000
Cl       0.00318161       5.61472818      14.05664647       1.00000000       0.00000000 CMO Cl        0      -0.00150391       0.00053829      -0.00034393
Na      -0.00776455       5.63087278      16.84912722       1.00000000       0.00000000 NMO Na        0       0.00278564      -0.00919931       0.00919931
Cl       2.81000000       8.42673282      19.66755054       1.00000000       0.00000000 CMO Cl        0       0.00000000       0.01247338      -0.00508774
Na      -0.00252670       8.43924822      19.66747330       1.00000000       0.00000000 NMO Na        0       0.00115712      -0.00346498       0.00115712
Cl       2.81000000       5.60042019      16.87957981       1.00000000       0.00000000 CMO Cl        0       0.00000000       0.00981549      -0.00981549
Na       2.81000000       5.65491193      19.64788305       1.00000000       0.00000000 NMO Na        0      -0.00000000      -0.00408699       0.00145165
Cl       0.00318161       8.42335353      16.86527182       1.00000000       0.00000000 CMO Cl        0      -0.00150391       0.00034393      -0.00053829
Na       2.81000000       8.43818094      16.85358622       1.00000000       0.00000000 NMO Na        0      -0.00000000      -0.00179003      -0.00105728
Cl       0.01653027       5.59625685      19.68653027       1.00000000       0.00000000 CMO Cl        0      -0.00187703       0.01080117      -0.00187703
Na      -0.00326192      11.24000000       0.00000000       1.00000000       0.00000000 NMO Na        0      -0.00429230      -0.00000000       0.00000000
Cl       2.81000000      14.05326718       2.81244946       1.00000000       0.00000000 CMO Cl        0       0.00000000      -0.01247338       0.00508774
Na      -0.00252670      14.04075178       2.81252670       1.00000000       0.00000000 NMO Na        0       0.00115712       0.00346498      -0.00115712
Cl       2.81000000      11.24000000       0.00000000       1.00000000       0.00000000 CMO Cl        0       0.00000000       0.00000000      -0.00000000
Na       2.81000000      11.24000000       2.81326192       1.00000000       0.00000000 NMO Na        0      -0.00000000      -0.00000000       0.00429230
Cl      -0.00244946      14.05326718       0.00000000       1.00000000       0.00000000 CMO Cl        0      -0.00508774      -0.01247338       0.00000000
Na       2.81000000      14.02729189      -0.00000000       1.00000000       0.00000000 NMO Na        0       0.00000000      -0.00528779       0.00000000
Cl       0.00192374      11.24000000       2.80807626       1.00000000       0.00000000 CMO Cl        0      -0.00108616       0.00000000       0.00108616
Na      -0.00177874      11.24000000       5.62308615       1.00000000       0.00000000 NMO Na        0       0.00112744      -0.00000000      -0.00176402
Cl       2.81000000      14.05459201       8.42540799       1.00000000       0.00000000 CMO Cl        0       0.00000000      -0.00137551       0.00137551
Na      -0.00207896      14.04624340       8.43375660       1.00000000       0.00000000 NMO Na        0       0.00052824       0.00171438      -0.00171438
Cl       2.81000000      11.24000000       5.61754436       1.00000000       0.00000000 CMO Cl        0       0.00000000       0.00000000       0.00476833
Na       2.81000000      11.24000000       8.43276260       1.00000000       0.00000000 NMO Na        0      -0.00000000       0.00000000      -0.00090841
Cl       0.00318161      14.05664647       5.61472818       1.00000000       0.00000000 CMO Cl        0      -0.00150391      -0.00034393       0.00053829
Na       2.81000000      14.04181906       5.62641378       1.00000000       0.00000000 NMO Na        0       0.00000000       0.00179003       0.00105728
Cl       0.00166615      11.24000000       8.42755681       1.00000000       0.00000000 CMO Cl        0      -0.00048229      -0.00000000       0.00102835
Na      -0.00144993      11.24000000      11.24000000       1.00000000       0.00000000 NMO Na        0       0.00026225       0.00000000       0.00000000
Cl       2.81000000      14.05459201      14.05459201       1.00000000       0.00000000 CMO Cl        0       0.00000000      -0.00137551      -0.00137551
Na      -0.00207896      14.04624340      14.04624340       1.00000000       0.00000000 NMO Na        0       0.00052824       0.00171438       0.00171438
Cl       2.81000000      11.24000000      11.24000000       1.00000000       0.00000000 CMO Cl        0      -0.00000000      -0.00000000      -0.00000000
Na       2.81000000      11.24000000      14.04723740       1.00000000       0.00000000 NMO Na        0      -0.00000000      -0.00000000       0.00090841
Cl       0.00166615      14.05244319      11.24000000       1.00000000       0.00000000 CMO Cl        0      -0.00048229      -0.00102835       0.00000000
Na       2.81000000      14.04723740      11.24000000       1.00000000       0.00000000 NMO Na        0      -0.00000000       0.00090841      -0.00000000
Cl       0.00166615      11.24000000      14.05244319       1.00000000       0.00000000 CMO Cl        0      -0.00048229       0.00000000      -0.00102835
Na      -0.00177874      11.24000000      16.85691385       1.00000000       0.00000000 NMO Na        0       0.00112744      -0.00000000       0.00176402
Cl       2.81000000      14.05326718      19.66755054       1.00000000       0.00000000 CMO Cl        0       0.00000000      -0.01247338      -0.00508774
Na      -0.00252670      14.04075178      19.66747330       1.00000000       0.00000000 NMO Na        0       0.00115712       0.00346498       0.00115712
Cl       2.81000000      11.24000000      16.86245564       1.00000000       0.00000000 CMO Cl        0       0.00000000       0.00000000      -0.00476833
Na       2.81000000      11.24000000      19.66673808       1.00000000       0.00000000 NMO Na        0       0.00000000      -0.00000000      -0.00429230
Cl       0.00318161      14.05664647      16.86527182       1.00000000       0.00000000 CMO Cl        0      -0.00150391      -0.00034393      -0.00053829
Na       2.81000000      14.04181906      16.85358622       1.00000000       0.00000000 NMO Na        0      -0.00000000       0.00179003      -0.00105728
Cl       0.00192374      11.24000000      19.67192374       1.00000000       0.00000000 CMO Cl        0      -0.00108616       0.00000000      -0.00108616
Na      -0.02211695      16.82508807       0.00000000       1.00000000       0.00000000 NMO Na        0       0.00145165       0.00408699      -0.00000000
Cl       2.81000000      19.76083675       2.71916325       1.00000000       0.00000000 CMO Cl        0       0.00000000      -0.01592419       0.01592419
Na      -0.01684985      19.65315015       2.82684985       1.00000000       0.00000000 NMO Na        0       0.01566027       0.01566027      -0.01566027
Cl       2.81000000      16.81049479       0.00000000       1.00000000       0.00000000 CMO Cl        0       0.00000000      -0.03882524      -0.00000000
Na       2.81000000      16.82508807       2.83211695       1.00000000       0.00000000 NMO Na        0       0.00000000       0.00408699      -0.00145165
Cl       0.09083675      19.76083675       0.00000000       1.00000000       0.00000000 CMO Cl        0      -0.01592419      -0.01592419       0.00000000
Na       2.81000000      19.41760817       0.00000000       1.00000000       0.00000000 NMO Na        0      -0.00000000       0.01359201      -0.00000000
Cl       0.01653027      16.88374315       2.79346973       1.00000000       0.00000000 CMO Cl        0      -0.00187703      -0.01080117       0.00187703
Na      -0.00776455      16.84912722       5.63087278       1.00000000       0.00000000 NMO Na        0       0.00278564       0.00919931      -0.00919931
Cl       2.81000000      19.66755054       8.42673282       1.00000000       0.00000000 CMO Cl        0       0.00000000      -0.00508774       0.01247338
Na      -0.00252670      19.66747330       8.43924822       1.00000000       0.00000000 NMO Na        0       0.00115712       0.00115712      -0.00346498
Cl       2.81000000      16.87957981       5.60042019       1.00000000       0.00000000 CMO Cl        0      -0.00000000      -0.00981549       0.00981549
Na       2.81000000      16.85358622       8.43818094       1.00000000       0.00000000 NMO Na        0       0.00000000      -0.00105728      -0.00179003
Cl       0.01653027      19.68653027       5.59625685       1.00000000       0.00000000 CMO Cl        0      -0.00187703      -0.00187703       0.01080117
Na       2.81000000      19.64788305       5.65491193       1.00000000       0.00000000 NMO Na        0      -0.00000000       0.00145165      -0.00408699
Cl       0.00318161      16.86527182       8.42335353       1.00000000       0.00000000 CMO Cl        0      -0.00150391      -0.00053829       0.00034393
Na      -0.00177874      16.85691385      11.24000000       1.00000000       0.00000000 NMO Na        0       0.00112744       0.00176402      -0.00000000
Cl       2.81000000      19.66755054      14.05326718       1.00000000       0.00000000 CMO Cl        0       0.00000000      -0.00508774      -0.01247338
Na      -0.00252670      19.66747330      14.04075178       1.00000000       0.00000000 NMO Na        0       0.00115712       0.00115712       0.00346498
Cl       2.81000000      16.86245564      11.24000000       1.00000000       0.00000000 CMO Cl        0       0.00000000      -0.00476833       0.00000000
Na       2.81000000      16.85358622      14.04181906       1.00000000       0.00000000 NMO Na        0      -0.00000000      -0.00105728       0.00179003
Cl       0.00192374      19.67192374      11.24000000       1.00000000       0.00000000 CMO Cl        0      -0.00108616      -0.00108616       0.00000000
Na       2.81000000      19.66673808      11.24000000       1.00000000       0.00000000 NMO Na        0       0.00000000      -0.00429230      -0.00000000
Cl       0.00318161      16.86527182      14.05664647       1.00000000       0.00000000 CMO Cl        0      -0.00150391      -0.00053829      -0.00034393
Na      -0.00776455      16.84912722      16.84912722       1.00000000       0.00000000 NMO Na        0       0.00278564       0.00919931       0.00919931
Cl       2.81000000      19.76083675      19.76083675       1.00000000       0.00000000 CMO Cl        0       0.00000000      -0.01592419      -0.01592419
Na      -0.01684985      19.65315015      19.65315015       1.00000000       0.00000000 NMO Na        0       0.01566027       0.01566027       0.01566027
Cl       2.81000000      16.87957981      16.87957981       1.00000000       0.00000000 CMO Cl        0       0.00000000      -0.00981549      -0.00981549
Na       2.81000000      16.82508807      19.64788305       1.00000000       0.00000000 NMO Na        0      -0.00000000       0.00408699       0.00145165
Cl       0.01653027      19.68653027      16.88374315       1.00000000       0.00000000 CMO Cl        0      -0.00187703      -0.00187703      -0.01080117
Na       2.81000000      19.64788305      16.82508807       1.00000000       0.00000000 NMO Na        0       0.00000000       0.00145165       0.00408699
Cl       0.01653027      16.88374315      19.68653027       1.00000000       0.00000000 CMO Cl        0      -0.00187703      -0.01080117      -0.00187703
Na       5.87239183       0.00000000       0.00000000       1.00000000       0.00000000 NMO Na        0      -0.01359201      -0.00000000      -0.00000000
Cl       8.40625685       2.79346973       2.79346973       1.00000000       0.00000000 CMO Cl        0       0.01080117       0.00187703       0.00187703
Na       5.63684985       2.82684985       2.82684985       1.00000000       0.00000000 NMO Na        0      -0.01566027      -0.01566027      -0.01566027
Cl       8.47950521       0.00000000       0.00000000       1.00000000       0.00000000 CMO Cl        0       0.03882524       0.00000000       0.00000000
Na       8.46491193      -0.00000000       2.83211695       1.00000000       0.00000000 NMO Na        0      -0.00408699      -0.00000000      -0.00145165
Cl       5.52916325       2.71916325       0.00000000       1.00000000       0.00000000 CMO Cl        0       0.01592419       0.01592419       0.00000000
Na       8.46491193       2.83211695      -0.00000000       1.00000000       0.00000000 NMO Na        0      -0.00408699      -0.00145165      -0.00000000
Cl       5.52916325       0.00000000       2.71916325       1.00000000       0.00000000 CMO Cl        0       0.01592419       0.00000000       0.01592419
Na       5.64211695      -0.00000000       5.65491193       1.00000000       0.00000000 NMO Na        0      -0.00145165      -0.00000000      -0.00408699
Cl       8.42472818       2.80681839       8.42335353       1.00000000       0.00000000 CMO Cl        0       0.00053829       0.00150391       0.00034393
Na       5.62252670       2.81252670       8.43924822       1.00000000       0.00000000 NMO Na        0      -0.00115712      -0.00115712      -0.00346498
Cl       8.41042019       0.00000000       5.60042019       1.00000000       0.00000000 CMO Cl        0       0.00981549      -0.00000000       0.00981549
Na       8.43641378      -0.00000000       8.43818094       1.00000000       0.00000000 NMO Na        0       0.00105728       0.00000000      -0.00179003
Cl       5.60346973       2.79346973       5.59625685       1.00000000       0.00000000 CMO Cl        0       0.00187703       0.00187703       0.01080117
Na       8.44087278       2.81776455       5.63087278       1.00000000       0.00000000 NMO Na        0      -0.00919931      -0.00278564      -0.00919931
Cl       5.62244946      -0.00000000       8.42673282       1.00000000       0.00000000 CMO Cl        0       0.00508774      -0.00000000       0.01247338
Na       5.62326192       0.00000000      11.24000000       1.00000000       0.00000000 NMO Na        0       0.00429230       0.00000000      -0.00000000
Cl       8.42472818       2.80681839      14.05664647       1.00000000       0.00000000 CMO Cl        0       0.00053829       0.00150391      -0.00034393
Na       5.62252670       2.81252670      14.04075178       1.00000000       0.00000000 NMO Na        0      -0.00115712      -0.00115712       0.00346498
Cl       8.42754436       0.00000000      11.24000000       1.00000000       0.00000000 CMO Cl        0       0.00476833      -0.00000000       0.00000000
Na       8.43641378       0.00000000      14.04181906       1.00000000       0.00000000 NMO Na        0       0.00105728       0.00000000       0.00179003
Cl       5.61807626       2.80807626      11.24000000       1.00000000       0.00000000 CMO Cl        0       0.00108616       0.00108616       0.00000000
Na       8.43308615       2.81177874      11.24000000       1.00000000       0.00000000 NMO Na        0      -0.00176402      -0.00112744      -0.00000000
Cl       5.62244946       0.00000000      14.05326718       1.00000000       0.00000000 CMO Cl        0       0.00508774       0.00000000      -0.01247338
Na       5.64211695       0.00000000      16.82508807       1.00000000       0.00000000 NMO Na        0      -0.00145165      -0.00000000       0.00408699
Cl       8.40625685       2.79346973      19.68653027       1.00000000       0.00000000 CMO Cl        0       0.01080117       0.00187703      -0.00187703
Na       5.63684985       2.82684985      19.65315015       1.00000000       0.00000000 NMO Na        0      -0.01566027      -0.01566027       0.01566027
Cl       8.41042019       0.00000000      16.87957981       1.00000000       0.00000000 CMO Cl        0       0.00981549      -0.00000000      -0.00981549
Na       8.46491193      -0.00000000      19.64788305       1.00000000       0.00000000 NMO Na        0      -0.00408699      -0.00000000       0.00145165
Cl       5.60346973       2.79346973      16.88374315       1.00000000       0.00000000 CMO Cl        0       0.00187703       0.00187703      -0.01080117
Na       8.44087278       2.81776455      16.84912722       1.00000000       0.00000000 NMO Na        0      -0.00919931      -0.00278564       0.00919931
Cl       5.52916325       0.00000000      19.76083675       1.00000000       0.00000000 CMO Cl        0       0.01592419       0.00000000      -0.01592419
Na       5.64211695       5.65491193      -0.00000000       1.00000000       0.00000000 NMO Na        0      -0.00145165      -0.00408699      -0.00000000
Cl       8.42472818       8.42335353       2.80681839       1.00000000       0.00000000 CMO Cl        0       0.00053829       0.00034393       0.00150391
Na       5.62252670       8.43924822       2.81252670       1.00000000       0.00000000 NMO Na        0      -0.00115712      -0.00346498      -0.00115712
Cl       8.41042019       5.60042019       0.00000000       1.00000000       0.00000000 CMO Cl        0       0.00981549       0.00981549      -0.00000000
Na       8.44087278       5.63087278       2.81776455       1.00000000       0.00000000 NMO Na        0      -0.00919931      -0.00919931      -0.00278564
Cl       5.62244946       8.42673282      -0.00000000       1.00000000       0.00000000 CMO Cl        0       0.00508774       0.01247338      -0.00000000
Na       8.43641378       8.43818094      -0.00000000       1.00000000       0.00000000 NMO Na        0       0.00105728      -0.00179003       0.00000000
Cl       5.60346973       5.59625685       2.79346973       1.00000000       0.00000000 CMO Cl        0       0.00187703       0.01080117       0.00187703
Na       5.62776455       5.63087278       5.63087278       1.00000000       0.00000000 NMO Na        0      -0.00278564      -0.00919931      -0.00919931
Cl       8.42724753       8.42729664       8.42729664       1.00000000       0.00000000 CMO Cl        0       0.00096598       0.00110492       0.00110492
Na       5.62207896       8.43375660       8.43375660       1.00000000       0.00000000 NMO Na        0      -0.00052824      -0.00171438      -0.00171438
Cl       8.42263605       5.61263605       5.61263605       1.00000000       0.00000000 CMO Cl        0       0.00195678       0.00195678       0.00195678
Na       8.43382729       5.62382729       8.43458126       1.00000000       0.00000000 NMO Na        0      -0.00138090      -0.00138090      -0.00128026
Cl       5.61681839       8.42335353       5.61472818       1.00000000       0.00000000 CMO Cl        0       0.00150391       0.00034393       0.00053829
Na       8.43382729       8.43458126       5.62382729       1.00000000       0.00000000 NMO Na        0      -0.00138090      -0.00128026      -0.00138090
Cl       5.61681839       5.61472818       8.42335353       1.00000000       0.00000000 CMO Cl        0       0.00150391       0.00053829       0.00034393
Na       5.62177874       5.62308615      11.24000000       1.00000000       0.00000000 NMO Na        0      -0.00112744      -0.00176402       0.00000000
Cl       8.42724753       8.42729664      14.05270336       1.00000000       0.00000000 CMO Cl        0       0.00096598       0.00110492      -0.00110492
Na       5.62207896       8.43375660      14.04624340       1.00000000       0.00000000 NMO Na        0      -0.00052824      -0.00171438       0.00171438
Cl       8.42717702       5.61717702      11.24000000       1.00000000       0.00000000 CMO Cl        0       0.00096607       0.00096607      -0.00000000
Na       8.43382729       5.62382729      14.04541874       1.00000000       0.00000000 NMO Na        0      -0.00138090      -0.00138090       0.00128026
Cl       5.61833385       8.42755681      11.24000000       1.00000000       0.00000000 CMO Cl        0       0.00048229       0.00102835      -0.00000000
Na       8.43220578       8.43199050      11.24000000       1.00000000       0.00000000 NMO Na        0      -0.00073313      -0.00078571       0.00000000
Cl       5.61681839       5.61472818      14.05664647       1.00000000       0.00000000 CMO Cl        0       0.00150391       0.00053829      -0.00034393
Na       5.62776455       5.63087278      16.84912722       1.00000000       0.00000000 NMO Na        0      -0.00278564      -0.00919931       0.00919931
Cl       8.42472818       8.42335353      19.67318161       1.00000000       0.00000000 CMO Cl        0       0.00053829       0.00034393      -0.00150391
Na       5.62252670       8.43924822      19.66747330       1.00000000       0.00000000 NMO Na        0      -0.00115712      -0.00346498       0.00115712
Cl       8.42263605       5.61263605      16.86736395       1.00000000       0.00000000 CMO Cl        0       0.00195678       0.00195678      -0.00195678
Na       8.44087278       5.63087278      19.66223545       1.00000000       0.00000000 NMO Na        0      -0.00919931      -0.00919931       0.00278564
Cl       5.61681839       8.42335353      16.86527182       1.00000000       0.00000000 CMO Cl        0       0.00150391       0.00034393      -0.00053829
Na       8.43382729       8.43458126      16.85617271       1.00000000       0.00000000 NMO Na        0      -0.00138090      -0.00128026       0.00138090
Cl       5.60346973       5.59625685      19.68653027       1.00000000       0.00000000 CMO Cl        0       0.00187703       0.01080117      -0.00187703