511
Lattice="22.48 0.0 0.0 0.0 22.48 0.0 0.0 0.0 22.48" Properties=species:S:1:pos:R:3:occupancy:R:1:bfactor:R:1:residuenames:S:1:atomtypes:S:1:residuenumbers:I:1:forces:R:3 energy=-2055.5671228537 free_energy=-2055.5671228537 stress="-0.0 -0.0 -0.0 -0.0 -0.0 -0.0 -0.0 -0.0 -0.0" pbc="T T T"
Na      -0.13787964       0.07248866       0.07248866       1.00000000       0.00000000 NMO Na        0      -0.03118939      -0.00253228      -0.00253228
Na      -0.02302949       2.71840834       2.71840834       1.00000000       0.00000000 NMO Na        0       0.05469207      -0.00440744      -0.00440744
Cl       2.81000000       1.74506422       1.74506422       1.00000000       0.00000000 CMO Cl        0       0.00000000       0.23968681       0.23968681
Na       2.81000000      -0.30435028       3.12138806       1.00000000       0.00000000 NMO Na        0       0.00000000       0.04143730      -0.02211158
Cl      -0.05789673       2.84200717      -0.08062420       1.00000000       0.00000000 CMO Cl        0       0.03478801      -0.02628054      -0.01214175
Na       2.81000000       3.12138806      -0.30435028       1.00000000       0.00000000 NMO Na        0      -0.00000000      -0.02211158       0.04143730
Cl      -0.05789673      -0.08062420       2.84200717       1.00000000       0.00000000 CMO Cl        0       0.03478801      -0.01214175      -0.02628054
Na      -0.04914852      -0.00535151       5.65536015       1.00000000       0.00000000 NMO Na        0       0.00803532      -0.00699905      -0.00308005
Cl       2.81000000       2.81870358       8.47374302       1.00000000       0.00000000 CMO Cl        0      -0.00000000       0.00003688       0.01238692
Na      -0.01504943       2.81035027       8.45345194       1.00000000       0.00000000 NMO Na        0       0.00112736       0.00229862       0.00209842
Cl       2.81000000       0.02451741       5.69435500       1.00000000       0.00000000 CMO Cl        0      -0.00000000      -0.02500449       0.01666690
Na       2.81000000      -0.01715925       8.47685872       1.00000000       0.00000000 NMO Na        0       0.00000000      -0.00131068       0.00202744
Cl       0.08449995       2.79300383       5.53875196       1.00000000       0.00000000 CMO Cl        0      -0.00192187      -0.01164041       0.00819488
Na       2.81000000       2.80029382       5.81580446       1.00000000       0.00000000 NMO Na        0       0.00000000      -0.01553514      -0.01955310
Cl       0.00003984       0.01143621       8.42316720       1.00000000       0.00000000 CMO Cl        0      -0.00705703      -0.00223556       0.01510419
Na      -0.00541009      -0.00099293      11.24385829       1.00000000       0.00000000 NMO Na        0      -0.00368061       0.00199900       0.00214645
Cl       2.81000000       2.81301764      14.04699053       1.00000000       0.00000000 CMO Cl        0      -0.00000000       0.00429973       0.00050577
Na      -0.00511194       2.81181566      14.04377754       1.00000000       0.00000000 NMO Na        0      -0.00452011      -0.00075146      -0.00822984
Cl       2.81000000      -0.00287166      11.24323886       1.00000000       0.00000000 CMO Cl        0      -0.00000000      -0.00370709       0.00391867
Na       2.81000000      -0.00288928      14.03010328       1.00000000       0.00000000 NMO Na        0       0.00000000      -0.00474765      -0.01575563
Cl      -0.00195536       2.80945487      11.24075840       1.00000000       0.00000000 CMO Cl        0      -0.00342679      -0.00027542       0.00492286
Na       2.81000000       2.81393870      11.25493419       1.00000000       0.00000000 NMO Na        0       0.00000000       0.00484311       0.00364731
Cl      -0.00263986       0.00006711      14.04988798       1.00000000       0.00000000 CMO Cl        0      -0.00467134      -0.00022519      -0.00314090
Na      -0.01836232       0.00064256      16.82987154       1.00000000       0.00000000 NMO Na        0      -0.00504919      -0.00519072      -0.01437098
Cl       2.81000000       2.75383044      19.60803241       1.00000000       0.00000000 CMO Cl        0      -0.00000000      -0.00034039       0.00056129
Na      -0.05501058       2.82074994      19.62143725       1.00000000       0.00000000 NMO Na        0       0.00589872       0.01142410       0.00450587
Cl       2.81000000      -0.01174798      16.80148746       1.00000000       0.00000000 CMO Cl        0      -0.00000000       0.00188919      -0.01313973
Na       2.81000000      -0.00421564      19.42437487       1.00000000       0.00000000 NMO Na        0       0.00000000       0.00857354      -0.01435217
Cl       0.00129251       2.79570862      16.86748430       1.00000000       0.00000000 CMO Cl        0      -0.00088138      -0.00333977      -0.01227879
Na       2.81000000       2.83039323      16.81051892       1.00000000       0.00000000 NMO Na        0       0.00000000       0.00658693      -0.00970263
Cl       0.09711254       0.01077423      19.76530446       1.00000000       0.00000000 CMO Cl        0       0.00578810       0.00669151      -0.00242621
Na      -0.04914852       5.65536015      -0.00535151       1.00000000       0.00000000 NMO Na        0       0.00803532      -0.00308005      -0.00699905
Cl       2.81000000       8.47374302       2.81870358       1.00000000       0.00000000 CMO Cl        0       0.00000000       0.01238692       0.00003688
Na      -0.01504943       8.45345194       2.81035027       1.00000000       0.00000000 NMO Na        0       0.00112736       0.00209842       0.00229862
Cl       2.81000000       5.69435500       0.02451741       1.00000000       0.00000000 CMO Cl        0      -0.00000000       0.01666690      -0.02500449
Na       2.81000000       5.81580446       2.80029382       1.00000000       0.00000000 NMO Na        0      -0.00000000      -0.01955310      -0.01553514
Cl       0.00003984       8.42316720       0.01143621       1.00000000       0.00000000 CMO Cl        0      -0.00705703       0.01510419      -0.00223556
Na       2.81000000       8.47685872      -0.01715925       1.00000000       0.00000000 NMO Na        0       0.00000000       0.00202744      -0.00131068
Cl       0.08449995       5.53875196       2.79300383       1.00000000       0.00000000 CMO Cl        0      -0.00192187       0.00819488      -0.01164041
Na      -0.01454958       5.61898227       5.61898227       1.00000000       0.00000000 NMO Na        0       0.00846919      -0.01967123      -0.01967123
Cl       2.81000000       8.41580051       8.41580051       1.00000000       0.00000000 CMO Cl        0       0.00000000       0.00277079       0.00277079
Na      -0.00632228       8.43574352       8.43574352       1.00000000       0.00000000 NMO Na        0       0.00061305      -0.00645954      -0.00645954
Cl       2.81000000       5.54103010       5.54103010       1.00000000       0.00000000 CMO Cl        0       0.00000000       0.01436050       0.01436050
Na       2.81000000       5.63613899       8.45130771       1.00000000       0.00000000 NMO Na        0      -0.00000000       0.00472936       0.00002697
Cl       0.01269315       8.41263338       5.60757499       1.00000000       0.00000000 CMO Cl        0      -0.00005620      -0.00764692      -0.00672701
Na       2.81000000       8.45130771       5.63613899       1.00000000       0.00000000 NMO Na        0      -0.00000000       0.00002697       0.00472936
Cl       0.01269315       5.60757499       8.41263338       1.00000000       0.00000000 CMO Cl        0      -0.00005620      -0.00672701      -0.00764692
Na      -0.00229382       5.62268202      11.24447932       1.00000000       0.00000000 NMO Na        0       0.00112276      -0.00015049      -0.00403357
Cl       2.81000000       8.42838754      14.05184847       1.00000000       0.00000000 CMO Cl        0      -0.00000000       0.00386055      -0.00189344
Na      -0.00244541       8.43285979      14.04842958       1.00000000       0.00000000 NMO Na        0      -0.00049616       0.00009439      -0.00136730
Cl       2.81000000       5.62352819      11.24068136       1.00000000       0.00000000 CMO Cl        0       0.00000000       0.00493798       0.00503481
Na       2.81000000       5.62858616      14.04447572       1.00000000       0.00000000 NMO Na        0      -0.00000000       0.00733929      -0.01096943
Cl       0.00271655       8.42603866      11.23625023       1.00000000       0.00000000 CMO Cl        0      -0.00050126       0.00018383       0.00113102
Na       2.81000000       8.43570445      11.24413681       1.00000000       0.00000000 NMO Na        0      -0.00000000       0.00008704      -0.00326325
Cl       0.00249565       5.61590047      14.05424624       1.00000000       0.00000000 CMO Cl        0      -0.00075655      -0.00123093       0.00178793
Na      -0.00649860       5.62486951      16.84975450       1.00000000       0.00000000 NMO Na        0      -0.00473493       0.00651047      -0.00963214
Cl       2.81000000       8.43418362      19.66704288       1.00000000       0.00000000 CMO Cl        0       0.00000000       0.02393833      -0.01260949
Na      -0.00627174       8.43939772      19.66747561       1.00000000       0.00000000 NMO Na        0      -0.00228965       0.00763763      -0.00086055
Cl       2.81000000       5.61965673      16.85939859       1.00000000       0.00000000 CMO Cl        0      -0.00000000       0.00348341      -0.02090383
Na       2.81000000       5.69702889      19.59727955       1.00000000       0.00000000 NMO Na        0       0.00000000      -0.00300044       0.01143158
Cl       0.00377268       8.42331143      16.86644686       1.00000000       0.00000000 CMO Cl        0       0.00055895      -0.00128003       0.00046720
Na       2.81000000       8.44221803      16.84794534       1.00000000       0.00000000 NMO Na        0       0.00000000       0.01472709      -0.01287932
Cl       0.03396250       5.60672134      19.68122304       1.00000000       0.00000000 CMO Cl        0      -0.01496102       0.01295474      -0.02190875
Na      -0.00541009      11.24385829      -0.00099293       1.00000000       0.00000000 NMO Na        0      -0.00368061       0.00214645       0.00199900
Cl       2.81000000      14.04699053       2.81301764       1.00000000       0.00000000 CMO Cl        0      -0.00000000       0.00050577       0.00429973
Na      -0.00511194      14.04377754       2.81181566       1.00000000       0.00000000 NMO Na        0      -0.00452011      -0.00822984      -0.00075146
Cl       2.81000000      11.24323886      -0.00287166       1.00000000       0.00000000 CMO Cl        0      -0.00000000       0.00391867      -0.00370709
Na       2.81000000      11.25493419       2.81393870       1.00000000       0.00000000 NMO Na        0       0.00000000       0.00364731       0.00484311
Cl      -0.00263986      14.04988798       0.00006711       1.00000000       0.00000000 CMO Cl        0      -0.00467134      -0.00314090      -0.00022519
Na       2.81000000      14.03010328      -0.00288928       1.00000000       0.00000000 NMO Na        0       0.00000000      -0.01575563      -0.00474765
Cl      -0.00195536      11.24075840       2.80945487       1.00000000       0.00000000 CMO Cl        0      -0.00342679       0.00492286      -0.00027542
Na      -0.00229382      11.24447932       5.62268202       1.00000000       0.00000000 NMO Na        0       0.00112276      -0.00403357      -0.00015049
Cl       2.81000000      14.05184847       8.42838754       1.00000000       0.00000000 CMO Cl        0      -0.00000000      -0.00189344       0.00386055
Na      -0.00244541      14.04842958       8.43285979       1.00000000       0.00000000 NMO Na        0      -0.00049616      -0.00136730       0.00009439
Cl       2.81000000      11.24068136       5.62352819       1.00000000       0.00000000 CMO Cl        0       0.00000000       0.00503481       0.00493798
Na       2.81000000      11.24413681       8.43570445       1.00000000       0.00000000 NMO Na        0       0.00000000      -0.00326325       0.00008704
Cl       0.00249565      14.05424624       5.61590047       1.00000000       0.00000000 CMO Cl        0      -0.00075655       0.00178793      -0.00123093
Na       2.81000000      14.04447572       5.62858616       1.00000000       0.00000000 NMO Na        0      -0.00000000      -0.01096943       0.00733929
Cl       0.00271655      11.23625023       8.42603866       1.00000000       0.00000000 CMO Cl        0      -0.00050126       0.00113102       0.00018383
Na      -0.00237389      11.24144924      11.24144924       1.00000000       0.00000000 NMO Na        0      -0.00025513      -0.00099701      -0.00099701
Cl       2.81000000      14.05293726      14.05293726       1.00000000       0.00000000 CMO Cl        0      -0.00000000       0.00044705       0.00044705
Na      -0.00250072      14.04780194      14.04780194       1.00000000       0.00000000 NMO Na        0      -0.00043274      -0.00022415      -0.00022415
Cl       2.81000000      11.23785596      11.23785596       1.00000000       0.00000000 CMO Cl        0      -0.00000000       0.00062347       0.00062347
Na       2.81000000      11.24135818      14.04790240       1.00000000       0.00000000 NMO Na        0       0.00000000       0.00124553      -0.00233203
Cl       0.00192583      14.05145670      11.23914776       1.00000000       0.00000000 CMO Cl        0      -0.00011372       0.00085098      -0.00002370
Na       2.81000000      14.04790240      11.24135818       1.00000000       0.00000000 NMO Na        0      -0.00000000      -0.00233203       0.00124553
Cl       0.00192583      11.23914776      14.05145670       1.00000000       0.00000000 CMO Cl        0      -0.00011372      -0.00002370       0.00085098
Na      -0.00238316      11.24072512      16.85717502       1.00000000       0.00000000 NMO Na        0      -0.00039260      -0.00009916       0.00041622
Cl       2.81000000      14.04983867      19.66571192       1.00000000       0.00000000 CMO Cl        0      -0.00000000      -0.00430934      -0.00734985
Na      -0.00262275      14.04321363      19.66737889       1.00000000       0.00000000 NMO Na        0       0.00054372      -0.00014967       0.00029905
Cl       2.81000000      11.23911053      16.86109990       1.00000000       0.00000000 CMO Cl        0      -0.00000000       0.00331095      -0.00488846
Na       2.81000000      11.24390585      19.66198021       1.00000000       0.00000000 NMO Na        0       0.00000000       0.00717376      -0.00586032
Cl       0.00300608      14.05532738      16.86472559       1.00000000       0.00000000 CMO Cl        0      -0.00006813       0.00118902       0.00088376
Na       2.81000000      14.04382154      16.85316115       1.00000000       0.00000000 NMO Na        0       0.00000000      -0.00051013      -0.00213555
Cl       0.00220197      11.23720356      19.67338197       1.00000000       0.00000000 CMO Cl        0      -0.00173815       0.00043618       0.00047968
Na      -0.01836232      16.82987154       0.00064256       1.00000000       0.00000000 NMO Na        0      -0.00504919      -0.01437098      -0.00519072
Cl       2.81000000      19.60803241       2.75383044       1.00000000       0.00000000 CMO Cl        0      -0.00000000       0.00056129      -0.00034039
Na      -0.05501058      19.62143725       2.82074994       1.00000000       0.00000000 NMO Na        0       0.00589872       0.00450587       0.01142410
Cl       2.81000000      16.80148746      -0.01174798       1.00000000       0.00000000 CMO Cl        0       0.00000000      -0.01313973       0.00188919
Na       2.81000000      16.81051892       2.83039323       1.00000000       0.00000000 NMO Na        0       0.00000000      -0.00970263       0.00658693
Cl       0.09711254      19.76530446       0.01077423       1.00000000       0.00000000 CMO Cl        0       0.00578810      -0.00242621       0.00669151
Na       2.81000000      19.42437487      -0.00421564       1.00000000       0.00000000 NMO Na        0       0.00000000      -0.01435217       0.00857354
Cl       0.00129251      16.86748430       2.79570862       1.00000000       0.00000000 CMO Cl        0      -0.00088138      -0.01227879      -0.00333977
Na      -0.00649860      16.84975450       5.62486951       1.00000000       0.00000000 NMO Na        0      -0.00473493      -0.00963214       0.00651047
Cl       2.81000000      19.66704288       8.43418362       1.00000000       0.00000000 CMO Cl        0      -0.00000000      -0.01260949       0.02393833
Na      -0.00627174      19.66747561       8.43939772       1.00000000       0.00000000 NMO Na        0      -0.00228965      -0.00086055       0.00763763
Cl       2.81000000      16.85939859       5.61965673       1.00000000       0.00000000 CMO Cl        0      -0.00000000      -0.02090383       0.00348341
Na       2.81000000      16.84794534       8.44221803       1.00000000       0.00000000 NMO Na        0       0.00000000      -0.01287932       0.01472709
Cl       0.03396250      19.68122304       5.60672134       1.00000000       0.00000000 CMO Cl        0      -0.01496102      -0.02190875       0.01295474
Na       2.81000000      19.59727955       5.69702889       1.00000000       0.00000000 NMO Na        0       0.00000000       0.01143158      -0.00300044
Cl       0.00377268      16.86644686       8.42331143       1.00000000       0.00000000 CMO Cl        0       0.00055895       0.00046720      -0.00128003
Na      -0.00238316      16.85717502      11.24072512       1.00000000       0.00000000 NMO Na        0      -0.00039260       0.00041622      -0.00009916
Cl       2.81000000      19.66571192      14.04983867       1.00000000       0.00000000 CMO Cl        0      -0.00000000      -0.00734985      -0.00430934
Na      -0.00262275      19.66737889      14.04321363       1.00000000       0.00000000 NMO Na        0       0.00054372       0.00029905      -0.00014967
Cl       2.81000000      16.86109990      11.23911053       1.00000000       0.00000000 CMO Cl        0      -0.00000000      -0.00488846       0.00331095
Na       2.81000000      16.85316115      14.04382154       1.00000000       0.00000000 NMO Na        0       0.00000000      -0.00213555      -0.00051013
Cl       0.00220197      19.67338197      11.23720356       1.00000000       0.00000000 CMO Cl        0      -0.00173815       0.00047968       0.00043618
Na       2.81000000      19.66198021      11.24390585       1.00000000       0.00000000 NMO Na        0       0.00000000      -0.00586032       0.00717376
Cl       0.00300608      16.86472559      14.05532738       1.00000000       0.00000000 CMO Cl        0      -0.00006813       0.00088376       0.00118902
Na      -0.00712325      16.85266500      16.85266500       1.00000000       0.00000000 NMO Na        0      -0.00110335       0.00343920       0.00343920
Cl       2.81000000      19.75431924      19.75431924       1.00000000       0.00000000 CMO Cl        0      -0.00000000      -0.01037918      -0.01037918
Na      -0.01746302      19.66580655      19.66580655       1.00000000       0.00000000 NMO Na        0       0.00506201       0.01193422       0.01193422
Cl       2.81000000      16.87571989      16.87571989       1.00000000       0.00000000 CMO Cl        0      -0.00000000      -0.00081410      -0.00081410
Na       2.81000000      16.83002851      19.64891230       1.00000000       0.00000000 NMO Na        0       0.00000000      -0.01098800      -0.01168093
Cl       0.01491464      19.68486822      16.88054713       1.00000000       0.00000000 CMO Cl        0       0.00253830       0.00891725       0.01099658
Na       2.81000000      19.64891230      16.83002851       1.00000000       0.00000000 NMO Na        0       0.00000000      -0.01168093      -0.01098800
Cl       0.01491464      16.88054713      19.68486822       1.00000000       0.00000000 CMO Cl        0       0.00253830       0.01099658       0.00891725
Na       5.75787964       0.07248866       0.07248866       1.00000000       0.00000000 NMO Na        0       0.03118939      -0.00253228      -0.00253228
Cl       8.42381520       2.79777023       2.79777023       1.00000000       0.00000000 CMO Cl        0      -0.01042867      -0.00939867      -0.00939867
Na       5.64302949       2.71840834       2.71840834       1.00000000       0.00000000 NMO Na        0      -0.05469207      -0.00440744      -0.00440744
Cl       8.44580290       0.00494858       0.00494858       1.00000000       0.00000000 CMO Cl        0       0.01359430      -0.00014648      -0.00014648
Na       8.48558564      -0.01718654       2.83362934       1.00000000       0.00000000 NMO Na        0      -0.00278500       0.00267174       0.00621925
Cl       5.67789673       2.84200717      -0.08062420       1.00000000       0.00000000 CMO Cl        0      -0.03478801      -0.02628054      -0.01214175
Na       8.48558564       2.83362934      -0.01718654       1.00000000       0.00000000 NMO Na        0      -0.00278500       0.00621925       0.00267174
Cl       5.67789673      -0.08062420       2.84200717       1.00000000       0.00000000 CMO Cl        0      -0.03478801      -0.01214175      -0.02628054
Na       5.66914852      -0.00535151       5.65536015       1.00000000       0.00000000 NMO Na        0      -0.00803532      -0.00699905      -0.00308005
Cl       8.41406221       2.81007037       8.41526747       1.00000000       0.00000000 CMO Cl        0      -0.00368339       0.00181997      -0.00415862
Na       5.63504943       2.81035027       8.45345194       1.00000000       0.00000000 NMO Na        0      -0.00112736       0.00229862       0.00209842
Cl       8.42959633       0.00874177       5.62467169       1.00000000       0.00000000 CMO Cl        0       0.01540632      -0.01097357       0.00791900
Na       8.44133786      -0.00334162       8.43901608       1.00000000       0.00000000 NMO Na        0       0.01078795       0.00497593       0.00762395
Cl       5.53550005       2.79300383       5.53875196       1.00000000       0.00000000 CMO Cl        0       0.00192187      -0.01164041       0.00819488
Na       8.43779234       2.81384028       5.61762218       1.00000000       0.00000000 NMO Na        0      -0.01602178      -0.00066657      -0.01653964
Cl       5.61996016       0.01143621       8.42316720       1.00000000       0.00000000 CMO Cl        0       0.00705703      -0.00223556       0.01510419
Na       5.62541009      -0.00099293      11.24385829       1.00000000       0.00000000 NMO Na        0       0.00368061       0.00199900       0.00214645
Cl       8.42635679       2.80797674      14.05434771       1.00000000       0.00000000 CMO Cl        0       0.00270237      -0.00034660      -0.00045956
Na       5.62511194       2.81181566      14.04377754       1.00000000       0.00000000 NMO Na        0       0.00452011      -0.00075146      -0.00822984
Cl       8.42708049       0.00127392      11.23717409       1.00000000       0.00000000 CMO Cl        0       0.00284101      -0.00065620       0.00176266
Na       8.43723741      -0.00035354      14.04443271       1.00000000       0.00000000 NMO Na        0       0.00113917      -0.00043036      -0.00100241
Cl       5.62195536       2.80945487      11.24075840       1.00000000       0.00000000 CMO Cl        0       0.00342679      -0.00027542       0.00492286
Na       8.43636166       2.81079233      11.24353135       1.00000000       0.00000000 NMO Na        0       0.00001577       0.00102362      -0.00242497
Cl       5.62263986       0.00006711      14.04988798       1.00000000       0.00000000 CMO Cl        0       0.00467134      -0.00022519      -0.00314090
Na       5.63836232       0.00064256      16.82987154       1.00000000       0.00000000 NMO Na        0       0.00504919      -0.00519072      -0.01437098
Cl       8.43262574       2.79783826      19.66247401       1.00000000       0.00000000 CMO Cl        0       0.01079761       0.00442530      -0.01010393
Na       5.67501058       2.82074994      19.62143725       1.00000000       0.00000000 NMO Na        0      -0.00589872       0.01142410       0.00450587
Cl       8.41190399      -0.00064602      16.87676024       1.00000000       0.00000000 CMO Cl        0      -0.00740118      -0.00230566       0.00652463
Na       8.44793842      -0.00136872      19.66560733       1.00000000       0.00000000 NMO Na        0       0.00106021       0.00138922       0.00646296
Cl       5.61870749       2.79570862      16.86748430       1.00000000       0.00000000 CMO Cl        0       0.00088138      -0.00333977      -0.01227879
Na       8.44327601       2.81517138      16.84911107       1.00000000       0.00000000 NMO Na        0       0.01600620      -0.00140011      -0.01183536
Cl       5.52288746       0.01077423      19.76530446       1.00000000       0.00000000 CMO Cl        0      -0.00578810       0.00669151      -0.00242621
Na       5.66914852       5.65536015      -0.00535151       1.00000000       0.00000000 NMO Na        0      -0.00803532      -0.00308005      -0.00699905
Cl       8.41406221       8.41526747       2.81007037       1.00000000       0.00000000 CMO Cl        0      -0.00368339      -0.00415862       0.00181997
Na       5.63504943       8.45345194       2.81035027       1.00000000       0.00000000 NMO Na        0      -0.00112736       0.00209842       0.00229862
Cl       8.42959633       5.62467169       0.00874177       1.00000000       0.00000000 CMO Cl        0       0.01540632       0.00791900      -0.01097357
Na       8.43779234       5.61762218       2.81384028       1.00000000       0.00000000 NMO Na        0      -0.01602178      -0.01653964      -0.00066657
Cl       5.61996016       8.42316720       0.01143621       1.00000000       0.00000000 CMO Cl        0       0.00705703       0.01510419      -0.00223556
Na       8.44133786       8.43901608      -0.00334162       1.00000000       0.00000000 NMO Na        0       0.01078795       0.00762395       0.00497593
Cl       5.53550005       5.53875196       2.79300383       1.00000000       0.00000000 CMO Cl        0       0.00192187       0.00819488      -0.01164041
Na       5.63454958       5.61898227       5.61898227       1.00000000       0.00000000 NMO Na        0      -0.00846919      -0.01967123      -0.01967123
Cl       8.42400117       8.42539464       8.42539464       1.00000000       0.00000000 CMO Cl        0       0.00160987       0.00187275       0.00187275
Na       5.62632228       8.43574352       8.43574352       1.00000000       0.00000000 NMO Na        0      -0.00061305      -0.00645954      -0.00645954
Cl       8.41618953       5.61141728       5.61141728       1.00000000       0.00000000 CMO Cl        0      -0.00494083      -0.00378727      -0.00378727
Na       8.43756207       5.62515808       8.43548413       1.00000000       0.00000000 NMO Na        0      -0.00327155       0.00002341      -0.00430274
Cl       5.60730685       8.41263338       5.60757499       1.00000000       0.00000000 CMO Cl        0       0.00005620      -0.00764692      -0.00672701
Na       8.43756207       8.43548413       5.62515808       1.00000000       0.00000000 NMO Na        0      -0.00327155      -0.00430274       0.00002341
Cl       5.60730685       5.60757499       8.41263338       1.00000000       0.00000000 CMO Cl        0       0.00005620      -0.00672701      -0.00764692
Na       5.62229382       5.62268202      11.24447932       1.00000000       0.00000000 NMO Na        0      -0.00112276      -0.00015049      -0.00403357
Cl       8.42674228       8.42740235      14.05125828       1.00000000       0.00000000 CMO Cl        0      -0.00029040      -0.00051709       0.00111505
Na       5.62244541       8.43285979      14.04842958       1.00000000       0.00000000 NMO Na        0       0.00049616       0.00009439      -0.00136730
Cl       8.42499471       5.61705644      11.23647135       1.00000000       0.00000000 CMO Cl        0       0.00006742      -0.00012007       0.00107051
Na       8.43398951       5.62284979      14.04773018       1.00000000       0.00000000 NMO Na        0       0.00030684       0.00068933      -0.00152555
Cl       5.61728345       8.42603866      11.23625023       1.00000000       0.00000000 CMO Cl        0       0.00050126       0.00018383       0.00113102
Na       8.43341343       8.43257135      11.24185277       1.00000000       0.00000000 NMO Na        0      -0.00033598      -0.00044516      -0.00129183
Cl       5.61750435       5.61590047      14.05424624       1.00000000       0.00000000 CMO Cl        0       0.00075655      -0.00123093       0.00178793
Na       5.62649860       5.62486951      16.84975450       1.00000000       0.00000000 NMO Na        0       0.00473493       0.00651047      -0.00963214
Cl       8.42199750       8.42245701      19.67394748       1.00000000       0.00000000 CMO Cl        0      -0.00273707      -0.00151944      -0.00052306
Na       5.62627174       8.43939772      19.66747561       1.00000000       0.00000000 NMO Na        0       0.00228965       0.00763763      -0.00086055
Cl       8.42129156       5.61480784      16.86789639       1.00000000       0.00000000 CMO Cl        0      -0.00394254      -0.00071599       0.00174189
Na       8.43578006       5.62390021      19.66750631       1.00000000       0.00000000 NMO Na        0       0.00707419       0.00568938      -0.00393496
Cl       5.61622732       8.42331143      16.86644686       1.00000000       0.00000000 CMO Cl        0      -0.00055895      -0.00128003       0.00046720
Na       8.43403858       8.43320201      16.85689125       1.00000000       0.00000000 NMO Na        0      -0.00014426      -0.00014010       0.00045443
Cl       5.58603750       5.60672134      19.68122304       1.00000000       0.00000000 CMO Cl        0       0.01496102       0.01295474      -0.02190875