511
Lattice="22.48 0.0 0.0 0.0 22.48 0.0 0.0 0.0 22.48" Properties=species:S:1:pos:R:3:occupancy:R:1:bfactor:R:1:residuenames:S:1:atomtypes:S:1:residuenumbers:I:1:forces:R:3 energy=-2055.8085206248 free_energy=-2055.8085206248 stress="-0.0 -0.0 -0.0 -0.0 -0.0 -0.0 -0.0 -0.0 -0.0" pbc="T T T"
Na       0.01099376       0.07326216       0.07326216       1.00000000       0.00000000 NMO Na        0       0.04494281      -0.01017566      -0.01017566
Na      -0.19277521       2.76316906       2.76316906       1.00000000       0.00000000 NMO Na        0      -0.04781398       0.01491771       0.01491771
Cl       2.81000000       0.72020758       0.72020758       1.00000000       0.00000000 CMO Cl        0       0.00000000      -0.31860156      -0.31860156
Na       2.81000000      -0.28139667       3.04782957       1.00000000       0.00000000 NMO Na        0       0.00000000       0.02891142      -0.06626047
Cl      -0.02662838       2.88973163       0.00962128       1.00000000       0.00000000 CMO Cl        0       0.05177263      -0.00495363       0.04140701
Na       2.81000000       3.04782957      -0.28139667       1.00000000       0.00000000 NMO Na        0       0.00000000      -0.06626047       0.02891142
Cl      -0.02662838       0.00962128       2.88973163       1.00000000       0.00000000 CMO Cl        0       0.05177263       0.04140701      -0.00495363
Na      -0.04931989      -0.01307427       5.66618154       1.00000000       0.00000000 NMO Na        0       0.01120162      -0.00959599      -0.00032441
Cl       2.81000000       2.81962119       8.49102081       1.00000000       0.00000000 CMO Cl        0       0.00000000       0.00141876       0.01567740
Na      -0.01999233       2.80930501       8.46320099       1.00000000       0.00000000 NMO Na        0      -0.00387378       0.00399464       0.01506959
Cl       2.81000000       0.07057842       5.65139564       1.00000000       0.00000000 CMO Cl        0       0.00000000       0.00489825      -0.02853905
Na       2.81000000      -0.02150358       8.47587055       1.00000000       0.00000000 NMO Na        0      -0.00000000      -0.00668123       0.00762947
Cl       0.09813989       2.80360411       5.52396881       1.00000000       0.00000000 CMO Cl        0       0.00123491      -0.00178942       0.00162057
Na       2.81000000       2.81847597       5.87746675       1.00000000       0.00000000 NMO Na        0      -0.00000000      -0.00891313       0.01862266
Cl       0.00519465       0.01539384       8.41904800       1.00000000       0.00000000 CMO Cl        0      -0.00311578       0.00455117       0.01162703
Na      -0.00456202      -0.00223573      11.24740676       1.00000000       0.00000000 NMO Na        0      -0.00270890       0.00044456       0.00690812
Cl       2.81000000       2.81249302      14.04746515       1.00000000       0.00000000 CMO Cl        0      -0.00000000       0.00221977      -0.00413056
Na      -0.00555112       2.81053218      14.04753037       1.00000000       0.00000000 NMO Na        0      -0.00231381      -0.00170959       0.00034673
Cl       2.81000000      -0.00319334      11.24207469       1.00000000       0.00000000 CMO Cl        0       0.00000000      -0.00452383       0.00062690
Na       2.81000000      -0.00457646      14.03899997       1.00000000       0.00000000 NMO Na        0      -0.00000000      -0.00345727       0.00064353
Cl      -0.00305671       2.81013355      11.23999004       1.00000000       0.00000000 CMO Cl        0      -0.00524489       0.00037175       0.00313263
Na       2.81000000       2.81199638      11.26246562       1.00000000       0.00000000 NMO Na        0       0.00000000       0.00310857       0.01583253
Cl      -0.00130783       0.00081425      14.04903478       1.00000000       0.00000000 CMO Cl        0      -0.00230362      -0.00004005      -0.00319303
Na      -0.01163206      -0.00131448      16.84132047       1.00000000       0.00000000 NMO Na        0       0.00372460       0.00007486       0.00113769
Cl       2.81000000       2.80213813      19.60389896       1.00000000       0.00000000 CMO Cl        0       0.00000000       0.02213593      -0.01330786
Na      -0.04014341       2.81245099      19.64158541       1.00000000       0.00000000 NMO Na        0       0.00566741       0.01100130      -0.00352843
Cl       2.81000000      -0.00561421      16.82933119       1.00000000       0.00000000 CMO Cl        0      -0.00000000      -0.00113117      -0.00028018
Na       2.81000000       0.01486417      19.52438658       1.00000000       0.00000000 NMO Na        0      -0.00000000       0.01425687       0.03270602
Cl      -0.00005093       2.80124319      16.86652735       1.00000000       0.00000000 CMO Cl        0      -0.00863597       0.00238988      -0.01236691
Na       2.81000000       2.82331742      16.81830771       1.00000000       0.00000000 NMO Na        0       0.00000000       0.00073358       0.00116994
Cl       0.06939004       0.01845450      19.73693610       1.00000000       0.00000000 CMO Cl        0      -0.00526082       0.01144761      -0.00603926
Na      -0.04931989       5.66618154      -0.01307427       1.00000000       0.00000000 NMO Na        0       0.01120162      -0.00032441      -0.00959599
Cl       2.81000000       8.49102081       2.81962119       1.00000000       0.00000000 CMO Cl        0       0.00000000       0.01567740       0.00141876
Na      -0.01999233       8.46320099       2.80930501       1.00000000       0.00000000 NMO Na        0      -0.00387378       0.01506959       0.00399464
Cl       2.81000000       5.65139564       0.07057842       1.00000000       0.00000000 CMO Cl        0       0.00000000      -0.02853905       0.00489825
Na       2.81000000       5.87746675       2.81847597       1.00000000       0.00000000 NMO Na        0      -0.00000000       0.01862266      -0.00891313
Cl       0.00519465       8.41904800       0.01539384       1.00000000       0.00000000 CMO Cl        0      -0.00311578       0.01162703       0.00455117
Na       2.81000000       8.47587055      -0.02150358       1.00000000       0.00000000 NMO Na        0      -0.00000000       0.00762947      -0.00668123
Cl       0.09813989       5.52396881       2.80360411       1.00000000       0.00000000 CMO Cl        0       0.00123491       0.00162057      -0.00178942
Na      -0.01747378       5.62796748       5.62796748       1.00000000       0.00000000 NMO Na        0       0.00511761      -0.00722952      -0.00722952
Cl       2.81000000       8.41371581       8.41371581       1.00000000       0.00000000 CMO Cl        0       0.00000000       0.00016894       0.00016894
Na      -0.00730558       8.43798835       8.43798835       1.00000000       0.00000000 NMO Na        0      -0.00098982      -0.00205509      -0.00205509
Cl       2.81000000       5.53400037       5.53400037       1.00000000       0.00000000 CMO Cl        0       0.00000000       0.01020618       0.01020618
Na       2.81000000       5.64248950       8.46349122       1.00000000       0.00000000 NMO Na        0       0.00000000       0.01065408       0.01244154
Cl       0.01584247       8.40845492       5.60420776       1.00000000       0.00000000 CMO Cl        0       0.00248275      -0.00959364      -0.00752485
Na       2.81000000       8.46349122       5.64248950       1.00000000       0.00000000 NMO Na        0       0.00000000       0.01244154       0.01065408
Cl       0.01584247       5.60420776       8.40845492       1.00000000       0.00000000 CMO Cl        0       0.00248275      -0.00752485      -0.00959364
Na      -0.00275715       5.62264676      11.24794487       1.00000000       0.00000000 NMO Na        0       0.00069535      -0.00042667       0.00136256
Cl       2.81000000       8.42916651      14.05053290       1.00000000       0.00000000 CMO Cl        0       0.00000000       0.00433130      -0.00278667
Na      -0.00224968       8.43286135      14.04965654       1.00000000       0.00000000 NMO Na        0      -0.00005430      -0.00050065       0.00055515
Cl       2.81000000       5.62441562      11.24004133       1.00000000       0.00000000 CMO Cl        0      -0.00000000       0.00711425       0.00394798
Na       2.81000000       5.62755007      14.04724630       1.00000000       0.00000000 NMO Na        0       0.00000000       0.00408188      -0.00390979
Cl       0.00305338       8.42488786      11.23389532       1.00000000       0.00000000 CMO Cl        0      -0.00014868      -0.00082323      -0.00153717
Na       2.81000000       8.43743275      11.24712025       1.00000000       0.00000000 NMO Na        0      -0.00000000       0.00220803       0.00147453
Cl       0.00198382       5.61714733      14.05203552       1.00000000       0.00000000 CMO Cl        0      -0.00206959      -0.00011151      -0.00078432
Na      -0.00558843       5.62198502      16.85106417       1.00000000       0.00000000 NMO Na        0       0.00007725      -0.00136625      -0.00428274
Cl       2.81000000       8.42496664      19.67508918       1.00000000       0.00000000 CMO Cl        0       0.00000000       0.01927726      -0.00366621
Na      -0.00654887       8.44014173      19.66356168       1.00000000       0.00000000 NMO Na        0      -0.00258744       0.00662302      -0.00540216
Cl       2.81000000       5.62307677      16.85696375       1.00000000       0.00000000 CMO Cl        0       0.00000000       0.01391876      -0.02339335
Na       2.81000000       5.67924902      19.60165648       1.00000000       0.00000000 NMO Na        0      -0.00000000      -0.01000557       0.00393424
Cl       0.00354248       8.42380402      16.86678384       1.00000000       0.00000000 CMO Cl        0       0.00009613       0.00004694       0.00108683
Na       2.81000000       8.44077860      16.84900362       1.00000000       0.00000000 NMO Na        0      -0.00000000       0.00896091      -0.01140519
Cl       0.02996240       5.60794117      19.68598223       1.00000000       0.00000000 CMO Cl        0      -0.01600673       0.01843298      -0.00820351
Na      -0.00456202      11.24740676      -0.00223573       1.00000000       0.00000000 NMO Na        0      -0.00270890       0.00690812       0.00044456
Cl       2.81000000      14.04746515       2.81249302       1.00000000       0.00000000 CMO Cl        0      -0.00000000      -0.00413056       0.00221977
Na      -0.00555112      14.04753037       2.81053218       1.00000000       0.00000000 NMO Na        0      -0.00231381       0.00034673      -0.00170959
Cl       2.81000000      11.24207469      -0.00319334       1.00000000       0.00000000 CMO Cl        0       0.00000000       0.00062690      -0.00452383
Na       2.81000000      11.26246562       2.81199638       1.00000000       0.00000000 NMO Na        0       0.00000000       0.01583253       0.00310857
Cl      -0.00130783      14.04903478       0.00081425       1.00000000       0.00000000 CMO Cl        0      -0.00230362      -0.00319303      -0.00004005
Na       2.81000000      14.03899997      -0.00457646       1.00000000       0.00000000 NMO Na        0      -0.00000000       0.00064353      -0.00345727
Cl      -0.00305671      11.23999004       2.81013355       1.00000000       0.00000000 CMO Cl        0      -0.00524489       0.00313263       0.00037175
Na      -0.00275715      11.24794487       5.62264676       1.00000000       0.00000000 NMO Na        0       0.00069535       0.00136256      -0.00042667
Cl       2.81000000      14.05053290       8.42916651       1.00000000       0.00000000 CMO Cl        0       0.00000000      -0.00278667       0.00433130
Na      -0.00224968      14.04965654       8.43286135       1.00000000       0.00000000 NMO Na        0      -0.00005430       0.00055515      -0.00050065
Cl       2.81000000      11.24004133       5.62441562       1.00000000       0.00000000 CMO Cl        0      -0.00000000       0.00394798       0.00711425
Na       2.81000000      11.24712025       8.43743275       1.00000000       0.00000000 NMO Na        0      -0.00000000       0.00147453       0.00220803
Cl       0.00198382      14.05203552       5.61714733       1.00000000       0.00000000 CMO Cl        0      -0.00206959      -0.00078432      -0.00011151
Na       2.81000000      14.04724630       5.62755007       1.00000000       0.00000000 NMO Na        0       0.00000000      -0.00390979       0.00408188
Cl       0.00305338      11.23389532       8.42488786       1.00000000       0.00000000 CMO Cl        0      -0.00014868      -0.00153717      -0.00082323
Na      -0.00249676      11.24255612      11.24255612       1.00000000       0.00000000 NMO Na        0      -0.00030715       0.00041757       0.00041757
Cl       2.81000000      14.05161449      14.05161449       1.00000000       0.00000000 CMO Cl        0       0.00000000      -0.00044296      -0.00044296
Na      -0.00220625      14.04899991      14.04899991       1.00000000       0.00000000 NMO Na        0      -0.00011072       0.00094860       0.00094860
Cl       2.81000000      11.23668002      11.23668002       1.00000000       0.00000000 CMO Cl        0       0.00000000      -0.00047493      -0.00047493
Na       2.81000000      11.24249602      14.04911529       1.00000000       0.00000000 NMO Na        0      -0.00000000       0.00198363      -0.00056746
Cl       0.00183876      14.05051881      11.23819353       1.00000000       0.00000000 CMO Cl        0      -0.00031065      -0.00020845      -0.00069909
Na       2.81000000      14.04911529      11.24249602       1.00000000       0.00000000 NMO Na        0      -0.00000000      -0.00056746       0.00198363
Cl       0.00183876      11.23819353      14.05051881       1.00000000       0.00000000 CMO Cl        0      -0.00031065      -0.00069909      -0.00020845
Na      -0.00240946      11.24208505      16.85709603       1.00000000       0.00000000 NMO Na        0      -0.00026541       0.00120401      -0.00028822
Cl       2.81000000      14.04919874      19.66725105       1.00000000       0.00000000 CMO Cl        0       0.00000000      -0.00249577      -0.00273213
Na      -0.00203591      14.04698771      19.66725532       1.00000000       0.00000000 NMO Na        0       0.00127658       0.00389505      -0.00008975
Cl       2.81000000      11.23742011      16.86213619       1.00000000       0.00000000 CMO Cl        0       0.00000000       0.00123323      -0.00244305
Na       2.81000000      11.24638347      19.66135526       1.00000000       0.00000000 NMO Na        0      -0.00000000       0.00809725      -0.00546467
Cl       0.00242448      14.05266982      16.86347349       1.00000000       0.00000000 CMO Cl        0      -0.00066151      -0.00127040      -0.00045490
Na       2.81000000      14.04724557      16.85507923       1.00000000       0.00000000 NMO Na        0      -0.00000000       0.00386348       0.00082362
Cl       0.00260493      11.23471433      19.67453412       1.00000000       0.00000000 CMO Cl        0      -0.00055035      -0.00151548       0.00082527
Na      -0.01163206      16.84132047      -0.00131448       1.00000000       0.00000000 NMO Na        0       0.00372460       0.00113769       0.00007486
Cl       2.81000000      19.60389896       2.80213813       1.00000000       0.00000000 CMO Cl        0      -0.00000000      -0.01330786       0.02213593
Na      -0.04014341      19.64158541       2.81245099       1.00000000       0.00000000 NMO Na        0       0.00566741      -0.00352843       0.01100130
Cl       2.81000000      16.82933119      -0.00561421       1.00000000       0.00000000 CMO Cl        0       0.00000000      -0.00028018      -0.00113117
Na       2.81000000      16.81830771       2.82331742       1.00000000       0.00000000 NMO Na        0      -0.00000000       0.00116994       0.00073358
Cl       0.06939004      19.73693610       0.01845450       1.00000000       0.00000000 CMO Cl        0      -0.00526082      -0.00603926       0.01144761
Na       2.81000000      19.52438658       0.01486417       1.00000000       0.00000000 NMO Na        0      -0.00000000       0.03270602       0.01425687
Cl      -0.00005093      16.86652735       2.80124319       1.00000000       0.00000000 CMO Cl        0      -0.00863597      -0.01236691       0.00238988
Na      -0.00558843      16.85106417       5.62198502       1.00000000       0.00000000 NMO Na        0       0.00007725      -0.00428274      -0.00136625
Cl       2.81000000      19.67508918       8.42496664       1.00000000       0.00000000 CMO Cl        0       0.00000000      -0.00366621       0.01927726
Na      -0.00654887      19.66356168       8.44014173       1.00000000       0.00000000 NMO Na        0      -0.00258744      -0.00540216       0.00662302
Cl       2.81000000      16.85696375       5.62307677       1.00000000       0.00000000 CMO Cl        0       0.00000000      -0.02339335       0.01391876
Na       2.81000000      16.84900362       8.44077860       1.00000000       0.00000000 NMO Na        0      -0.00000000      -0.01140519       0.00896091
Cl       0.02996240      19.68598223       5.60794117       1.00000000       0.00000000 CMO Cl        0      -0.01600673      -0.00820351       0.01843298
Na       2.81000000      19.60165648       5.67924902       1.00000000       0.00000000 NMO Na        0      -0.00000000       0.00393424      -0.01000557
Cl       0.00354248      16.86678384       8.42380402       1.00000000       0.00000000 CMO Cl        0       0.00009613       0.00108683       0.00004694
Na      -0.00240946      16.85709603      11.24208505       1.00000000       0.00000000 NMO Na        0      -0.00026541      -0.00028822       0.00120401
Cl       2.81000000      19.66725105      14.04919874       1.00000000       0.00000000 CMO Cl        0       0.00000000      -0.00273213      -0.00249577
Na      -0.00203591      19.66725532      14.04698771       1.00000000       0.00000000 NMO Na        0       0.00127658      -0.00008975       0.00389505
Cl       2.81000000      16.86213619      11.23742011       1.00000000       0.00000000 CMO Cl        0       0.00000000      -0.00244305       0.00123323
Na       2.81000000      16.85507923      14.04724557       1.00000000       0.00000000 NMO Na        0      -0.00000000       0.00082362       0.00386348
Cl       0.00260493      19.67453412      11.23471433       1.00000000       0.00000000 CMO Cl        0      -0.00055035       0.00082527      -0.00151548
Na       2.81000000      19.66135526      11.24638347       1.00000000       0.00000000 NMO Na        0      -0.00000000      -0.00546467       0.00809725
Cl       0.00242448      16.86347349      14.05266982       1.00000000       0.00000000 CMO Cl        0      -0.00066151      -0.00045490      -0.00127040
Na      -0.00546038      16.85512674      16.85512674       1.00000000       0.00000000 NMO Na        0       0.00123721       0.00573755       0.00573755
Cl       2.81000000      19.74147548      19.74147548       1.00000000       0.00000000 CMO Cl        0      -0.00000000      -0.01130813      -0.01130813
Na      -0.01148729      19.67121639      19.67121639       1.00000000       0.00000000 NMO Na        0       0.00702103       0.01556769       0.01556769
Cl       2.81000000      16.87277077      16.87277077       1.00000000       0.00000000 CMO Cl        0       0.00000000      -0.00153325      -0.00153325
Na       2.81000000      16.84486965      19.65788650       1.00000000       0.00000000 NMO Na        0       0.00000000       0.00273750      -0.00068202
Cl       0.01054050      19.68036967      16.87470235       1.00000000       0.00000000 CMO Cl        0      -0.00044731       0.00527166       0.00734449
Na       2.81000000      19.65788650      16.84486965       1.00000000       0.00000000 NMO Na        0       0.00000000      -0.00068202       0.00273750
Cl       0.01054050      16.87470235      19.68036967       1.00000000       0.00000000 CMO Cl        0      -0.00044731       0.00734449       0.00527166
Na       5.60900624       0.07326216       0.07326216       1.00000000       0.00000000 NMO Na        0      -0.04494281      -0.01017566      -0.01017566
Cl       8.46182696       2.80853707       2.80853707       1.00000000       0.00000000 CMO Cl        0       0.02138403       0.00176359       0.00176359
Na       5.81277521       2.76316906       2.76316906       1.00000000       0.00000000 NMO Na        0       0.04781398       0.01491771       0.01491771
Cl       8.41742125       0.01490868       0.01490868       1.00000000       0.00000000 CMO Cl        0      -0.01972396       0.01095698       0.01095698
Na       8.47996013      -0.02454192       2.82199457       1.00000000       0.00000000 NMO Na        0       0.00108882      -0.00748897      -0.00257306
Cl       5.64662838       2.88973163       0.00962128       1.00000000       0.00000000 CMO Cl        0      -0.05177263      -0.00495363       0.04140701
Na       8.47996013       2.82199457      -0.02454192       1.00000000       0.00000000 NMO Na        0       0.00108882      -0.00257306      -0.00748897
Cl       5.64662838       0.00962128       2.88973163       1.00000000       0.00000000 CMO Cl        0      -0.05177263       0.04140701      -0.00495363
Na       5.66931989      -0.01307427       5.66618154       1.00000000       0.00000000 NMO Na        0      -0.01120162      -0.00959599      -0.00032441
Cl       8.41171774       2.81060252       8.41275325       1.00000000       0.00000000 CMO Cl        0      -0.00635811       0.00172267      -0.00616065
Na       5.63999233       2.80930501       8.46320099       1.00000000       0.00000000 NMO Na        0       0.00387378       0.00399464       0.01506959
Cl       8.42778376       0.01371110       5.62296996       1.00000000       0.00000000 CMO Cl        0       0.00894652      -0.00097086       0.00719285
Na       8.44272987      -0.00602211       8.44076493       1.00000000       0.00000000 NMO Na        0       0.01329002      -0.00010859       0.01097984
Cl       5.52186011       2.80360411       5.52396881       1.00000000       0.00000000 CMO Cl        0      -0.00123491      -0.00178942       0.00162057
Na       8.45472789       2.81031669       5.63014353       1.00000000       0.00000000 NMO Na        0       0.00759213      -0.00056589       0.00027876
Cl       5.61480535       0.01539384       8.41904800       1.00000000       0.00000000 CMO Cl        0       0.00311578       0.00455117       0.01162703
Na       5.62456202      -0.00223573      11.24740676       1.00000000       0.00000000 NMO Na        0       0.00270890       0.00044456       0.00690812
Cl       8.42777294       2.80915910      14.05198777       1.00000000       0.00000000 CMO Cl        0       0.00266520       0.00059053      -0.00112805
Na       5.62555112       2.81053218      14.04753037       1.00000000       0.00000000 NMO Na        0       0.00231381      -0.00170959       0.00034673
Cl       8.42585042       0.00238619      11.23461211       1.00000000       0.00000000 CMO Cl        0       0.00229724       0.00052618      -0.00002480
Na       8.43554452      -0.00107728      14.04766994       1.00000000       0.00000000 NMO Na        0      -0.00064356      -0.00088122       0.00260674
Cl       5.62305671       2.81013355      11.23999004       1.00000000       0.00000000 CMO Cl        0       0.00524489       0.00037175       0.00313263
Na       8.43765872       2.81016444      11.24665636       1.00000000       0.00000000 NMO Na        0       0.00102589       0.00023075       0.00182879
Cl       5.62130783       0.00081425      14.04903478       1.00000000       0.00000000 CMO Cl        0       0.00230362      -0.00004005      -0.00319303
Na       5.63163206      -0.00131448      16.84132047       1.00000000       0.00000000 NMO Na        0      -0.00372460       0.00007486       0.00113769
Cl       8.42375767       2.80358122      19.67140844       1.00000000       0.00000000 CMO Cl        0       0.01320855       0.00930330      -0.00354249
Na       5.66014341       2.81245099      19.64158541       1.00000000       0.00000000 NMO Na        0      -0.00566741       0.01100130      -0.00352843
Cl       8.41622581       0.00064438      16.87314124       1.00000000       0.00000000 CMO Cl        0      -0.00190465      -0.00147497       0.00369255
Na       8.43484056      -0.00522244      19.67228744       1.00000000       0.00000000 NMO Na        0      -0.01537743       0.00046077       0.01353034
Cl       5.62005093       2.80124319      16.86652735       1.00000000       0.00000000 CMO Cl        0       0.00863597       0.00238988      -0.01236691
Na       8.43983052       2.81227529      16.85203383       1.00000000       0.00000000 NMO Na        0       0.00617179      -0.00467378      -0.00511539
Cl       5.55060996       0.01845450      19.73693610       1.00000000       0.00000000 CMO Cl        0       0.00526082       0.01144761      -0.00603926
Na       5.66931989       5.66618154      -0.01307427       1.00000000       0.00000000 NMO Na        0      -0.01120162      -0.00032441      -0.00959599
Cl       8.41171774       8.41275325       2.81060252       1.00000000       0.00000000 CMO Cl        0      -0.00635811      -0.00616065       0.00172267
Na       5.63999233       8.46320099       2.80930501       1.00000000       0.00000000 NMO Na        0       0.00387378       0.01506959       0.00399464
Cl       8.42778376       5.62296996       0.01371110       1.00000000       0.00000000 CMO Cl        0       0.00894652       0.00719285      -0.00097086
Na       8.45472789       5.63014353       2.81031669       1.00000000       0.00000000 NMO Na        0       0.00759213       0.00027876      -0.00056589
Cl       5.61480535       8.41904800       0.01539384       1.00000000       0.00000000 CMO Cl        0       0.00311578       0.01162703       0.00455117
Na       8.44272987       8.44076493      -0.00602211       1.00000000       0.00000000 NMO Na        0       0.01329002       0.01097984      -0.00010859
Cl       5.52186011       5.52396881       2.80360411       1.00000000       0.00000000 CMO Cl        0      -0.00123491       0.00162057      -0.00178942
Na       5.63747378       5.62796748       5.62796748       1.00000000       0.00000000 NMO Na        0      -0.00511761      -0.00722952      -0.00722952
Cl       8.42242229       8.42332469       8.42332469       1.00000000       0.00000000 CMO Cl        0      -0.00028521      -0.00063775      -0.00063775
Na       5.62730558       8.43798835       8.43798835       1.00000000       0.00000000 NMO Na        0       0.00098982      -0.00205509      -0.00205509
Cl       8.41028899       5.60678164       5.60678164       1.00000000       0.00000000 CMO Cl        0      -0.00845966      -0.00608673      -0.00608673
Na       8.43923350       5.62632976       8.43781998       1.00000000       0.00000000 NMO Na        0      -0.00058370       0.00137246      -0.00064326
Cl       5.60415753       8.40845492       5.60420776       1.00000000       0.00000000 CMO Cl        0      -0.00248275      -0.00959364      -0.00752485
Na       8.43923350       8.43781998       5.62632976       1.00000000       0.00000000 NMO Na        0      -0.00058370      -0.00064326       0.00137246
Cl       5.60415753       5.60420776       8.40845492       1.00000000       0.00000000 CMO Cl        0      -0.00248275      -0.00752485      -0.00959364
Na       5.62275715       5.62264676      11.24794487       1.00000000       0.00000000 NMO Na        0      -0.00069535      -0.00042667       0.00136256
Cl       8.42677245       8.42728713      14.05030600       1.00000000       0.00000000 CMO Cl        0       0.00004749      -0.00031570      -0.00013680
Na       5.62224968       8.43286135      14.04965654       1.00000000       0.00000000 NMO Na        0       0.00005430      -0.00050065       0.00055515
Cl       8.42426427       5.61706501      11.23404343       1.00000000       0.00000000 CMO Cl        0      -0.00030813      -0.00027191      -0.00167232
Na       8.43371499       5.62217535      14.04926919       1.00000000       0.00000000 NMO Na        0      -0.00007486      -0.00011054       0.00054438
Cl       5.61694662       8.42488786      11.23389532       1.00000000       0.00000000 CMO Cl        0       0.00014868      -0.00082323      -0.00153717
Na       8.43379247       8.43323215      11.24333630       1.00000000       0.00000000 NMO Na        0      -0.00002652       0.00025770       0.00055750
Cl       5.61801618       5.61714733      14.05203552       1.00000000       0.00000000 CMO Cl        0       0.00206959      -0.00011151      -0.00078432
Na       5.62558843       5.62198502      16.85106417       1.00000000       0.00000000 NMO Na        0      -0.00007725      -0.00136625      -0.00428274
Cl       8.42130257       8.42203864      19.67609180       1.00000000       0.00000000 CMO Cl        0      -0.00303984      -0.00177981       0.00099749
Na       5.62654887       8.44014173      19.66356168       1.00000000       0.00000000 NMO Na        0       0.00258744       0.00662302      -0.00540216
Cl       8.42268373       5.61654241      16.86734590       1.00000000       0.00000000 CMO Cl        0      -0.00130014       0.00034305       0.00150315
Na       8.43645560       5.62301902      19.66458999       1.00000000       0.00000000 NMO Na        0       0.00449208       0.00349625      -0.00546798
Cl       5.61645752       8.42380402      16.86678384       1.00000000       0.00000000 CMO Cl        0      -0.00009613       0.00004694       0.00108683
Na       8.43393284       8.43317429      16.85661840       1.00000000       0.00000000 NMO Na        0      -0.00046627      -0.00042009       0.00001535
Cl       5.59003760       5.60794117      19.68598223       1.00000000       0.00000000 CMO Cl        0       0.01600673       0.01843298      -0.00820351