511
Lattice="22.48 0.0 0.0 0.0 22.48 0.0 0.0 0.0 22.48" Properties=species:S:1:pos:R:3:occupancy:R:1:bfactor:R:1:residuenames:S:1:atomtypes:S:1:residuenumbers:I:1:forces:R:3 energy=-2056.0495288018 free_energy=-2056.0495288018 stress="-0.0 -0.0 -0.0 -0.0 -0.0 -0.0 -0.0 -0.0 -0.0" pbc="T T T"
Na      -0.23395824       0.02007687       0.02007687       1.00000000       0.00000000 NMO Na        0      -0.03183940      -0.01541939      -0.01541939
Na       0.01015282       2.77312295       2.77312295       1.00000000       0.00000000 NMO Na        0       0.01107489       0.01426132       0.01426132
Cl       2.81000000       2.41888051       2.41888051       1.00000000       0.00000000 CMO Cl        0       0.00000000       0.22729073       0.22729073
Na       2.81000000      -0.13512151       3.06568443       1.00000000       0.00000000 NMO Na        0      -0.00000000       0.07512493      -0.01411328
Cl       0.02296621       2.75676063      -0.05346581       1.00000000       0.00000000 CMO Cl        0       0.04546985      -0.02874844       0.02028203
Na       2.81000000       3.06568443      -0.13512151       1.00000000       0.00000000 NMO Na        0      -0.00000000      -0.01411328       0.07512493
Cl       0.02296621      -0.05346581       2.75676063       1.00000000       0.00000000 CMO Cl        0       0.04546985       0.02028203      -0.02874844
Na      -0.02997138      -0.00036880       5.64839759       1.00000000       0.00000000 NMO Na        0      -0.00032708      -0.01127075       0.00750988
Cl       2.81000000       2.81361068       8.44533967       1.00000000       0.00000000 CMO Cl        0       0.00000000       0.00079100      -0.01106892
Na      -0.00644365       2.81234482       8.44306661       1.00000000       0.00000000 NMO Na        0       0.00358534      -0.00125055      -0.00136628
Cl       2.81000000      -0.00187877       5.67652300       1.00000000       0.00000000 CMO Cl        0       0.00000000      -0.01232300       0.01280227
Na       2.81000000      -0.00690541       8.46530683       1.00000000       0.00000000 NMO Na        0      -0.00000000      -0.00036426      -0.00120799
Cl       0.04714065       2.79117858       5.57138246       1.00000000       0.00000000 CMO Cl        0      -0.00741103      -0.00848517       0.00374992
Na       2.81000000       2.80099104       5.69958069       1.00000000       0.00000000 NMO Na        0      -0.00000000      -0.00539767      -0.03841527
Cl      -0.00162324       0.00483505       8.42596530       1.00000000       0.00000000 CMO Cl        0      -0.00571146      -0.00122821       0.00647320
Na      -0.00592361      -0.00011801      11.24103187       1.00000000       0.00000000 NMO Na        0      -0.00136133       0.00096118      -0.00082195
Cl       2.81000000       2.81374360      14.04877667       1.00000000       0.00000000 CMO Cl        0      -0.00000000       0.00400044      -0.00297233
Na      -0.00379640       2.81260095      14.04124247       1.00000000       0.00000000 NMO Na        0      -0.00047927      -0.00038250      -0.00334832
Cl       2.81000000      -0.00159424      11.24149549       1.00000000       0.00000000 CMO Cl        0      -0.00000000      -0.00054777       0.00156737
Na       2.81000000      -0.00100424      14.02403434       1.00000000       0.00000000 NMO Na        0       0.00000000      -0.00101661      -0.01058015
Cl      -0.00028829       2.80895480      11.24088920       1.00000000       0.00000000 CMO Cl        0      -0.00101134       0.00056685       0.00005872
Na       2.81000000       2.81552040      11.24558585       1.00000000       0.00000000 NMO Na        0       0.00000000       0.00198301      -0.00111690
Cl      -0.00376295      -0.00018442      14.04961739       1.00000000       0.00000000 CMO Cl        0      -0.00459701      -0.00031184      -0.00344301
Na      -0.02191518       0.00038579      16.82371226       1.00000000       0.00000000 NMO Na        0      -0.00126828      -0.00170012      -0.01021955
Cl       2.81000000       2.72800431      19.69407031       1.00000000       0.00000000 CMO Cl        0      -0.00000000      -0.00346579       0.01878769
Na      -0.03480972       2.82419962      19.63683716       1.00000000       0.00000000 NMO Na        0       0.01036500       0.00273839      -0.00317162
Cl       2.81000000      -0.00498915      16.79920228       1.00000000       0.00000000 CMO Cl        0       0.00000000      -0.00300946      -0.01689513
Na       2.81000000      -0.00736616      19.40881310       1.00000000       0.00000000 NMO Na        0      -0.00000000       0.00641853      -0.01253763
Cl       0.01139193       2.79347501      16.87665040       1.00000000       0.00000000 CMO Cl        0      -0.00381156      -0.00318546      -0.00754233
Na       2.81000000       2.83262671      16.81838925       1.00000000       0.00000000 NMO Na        0       0.00000000       0.00365532      -0.00265106
Cl       0.09507514       0.00239458      19.76281335       1.00000000       0.00000000 CMO Cl        0      -0.00381138      -0.00144752      -0.00262969
Na      -0.02997138       5.64839759      -0.00036880       1.00000000       0.00000000 NMO Na        0      -0.00032708       0.00750988      -0.01127075
Cl       2.81000000       8.44533967       2.81361068       1.00000000       0.00000000 CMO Cl        0       0.00000000      -0.01106892       0.00079100
Na      -0.00644365       8.44306661       2.81234482       1.00000000       0.00000000 NMO Na        0       0.00358534      -0.00136628      -0.00125055
Cl       2.81000000       5.67652300      -0.00187877       1.00000000       0.00000000 CMO Cl        0      -0.00000000       0.01280227      -0.01232300
Na       2.81000000       5.69958069       2.80099104       1.00000000       0.00000000 NMO Na        0      -0.00000000      -0.03841527      -0.00539767
Cl      -0.00162324       8.42596530       0.00483505       1.00000000       0.00000000 CMO Cl        0      -0.00571146       0.00647320      -0.00122821
Na       2.81000000       8.46530683      -0.00690541       1.00000000       0.00000000 NMO Na        0      -0.00000000      -0.00120799      -0.00036426
Cl       0.04714065       5.57138246       2.79117858       1.00000000       0.00000000 CMO Cl        0      -0.00741103       0.00374992      -0.00848517
Na      -0.00812157       5.62147905       5.62147905       1.00000000       0.00000000 NMO Na        0       0.00382455      -0.00849857      -0.00849857
Cl       2.81000000       8.41987483       8.41987483       1.00000000       0.00000000 CMO Cl        0      -0.00000000      -0.00054004      -0.00054004
Na      -0.00411818       8.43400252       8.43400252       1.00000000       0.00000000 NMO Na        0       0.00110543      -0.00335630      -0.00335630
Cl       2.81000000       5.56462971       5.56462971       1.00000000       0.00000000 CMO Cl        0      -0.00000000       0.00928915       0.00928915
Na       2.81000000       5.62792250       8.43878595       1.00000000       0.00000000 NMO Na        0      -0.00000000      -0.00131283      -0.00235297
Cl       0.00722053       8.41871111       5.61219924       1.00000000       0.00000000 CMO Cl        0       0.00013079      -0.00691259      -0.00367117
Na       2.81000000       8.43878595       5.62792250       1.00000000       0.00000000 NMO Na        0       0.00000000      -0.00235297      -0.00131283
Cl       0.00722053       5.61219924       8.41871111       1.00000000       0.00000000 CMO Cl        0       0.00013079      -0.00367117      -0.00691259
Na      -0.00174147       5.62281706      11.24132988       1.00000000       0.00000000 NMO Na        0       0.00096362       0.00036209      -0.00216813
Cl       2.81000000       8.42711754      14.05335322       1.00000000       0.00000000 CMO Cl        0       0.00000000       0.00104178      -0.00078760
Na      -0.00235223       8.43294737      14.04738166       1.00000000       0.00000000 NMO Na        0      -0.00015185       0.00025952      -0.00055912
Cl       2.81000000       5.62173039      11.24070448       1.00000000       0.00000000 CMO Cl        0       0.00000000       0.00096662      -0.00092628
Na       2.81000000       5.62873630      14.04243632       1.00000000       0.00000000 NMO Na        0      -0.00000000       0.00261803      -0.00363583
Cl       0.00200302       8.42706231      11.23864965       1.00000000       0.00000000 CMO Cl        0      -0.00058200       0.00043352       0.00069043
Na       2.81000000       8.43401948      11.24116813       1.00000000       0.00000000 NMO Na        0      -0.00000000      -0.00107492      -0.00314428
Cl       0.00270775       5.61487572      14.05653986       1.00000000       0.00000000 CMO Cl        0      -0.00040548      -0.00009207       0.00063111
Na      -0.00684371       5.62775547      16.85057646       1.00000000       0.00000000 NMO Na        0      -0.00013346       0.00222991      -0.00271455
Cl       2.81000000       8.43156133      19.66662868       1.00000000       0.00000000 CMO Cl        0       0.00000000       0.01550520      -0.00889240
Na      -0.00434167       8.43899122      19.66798589       1.00000000       0.00000000 NMO Na        0       0.00094865       0.00179793       0.00123924
Cl       2.81000000       5.60863982      16.87158314       1.00000000       0.00000000 CMO Cl        0       0.00000000       0.00361904      -0.01166969
Na       2.81000000       5.67367515      19.62971396       1.00000000       0.00000000 NMO Na        0       0.00000000      -0.00052255       0.00039288
Cl       0.00319182       8.42294341      16.86593092       1.00000000       0.00000000 CMO Cl        0      -0.00013294      -0.00059924      -0.00021556
Na       2.81000000       8.43958241      16.85060320       1.00000000       0.00000000 NMO Na        0      -0.00000000       0.00581360      -0.00447472
Cl       0.02403047       5.60074387      19.68405848       1.00000000       0.00000000 CMO Cl        0      -0.01069398       0.00384028      -0.00862694
Na      -0.00592361      11.24103187      -0.00011801       1.00000000       0.00000000 NMO Na        0      -0.00136133      -0.00082195       0.00096118
Cl       2.81000000      14.04877667       2.81374360       1.00000000       0.00000000 CMO Cl        0      -0.00000000      -0.00297233       0.00400044
Na      -0.00379640      14.04124247       2.81260095       1.00000000       0.00000000 NMO Na        0      -0.00047927      -0.00334832      -0.00038250
Cl       2.81000000      11.24149549      -0.00159424       1.00000000       0.00000000 CMO Cl        0      -0.00000000       0.00156737      -0.00054777
Na       2.81000000      11.24558585       2.81552040       1.00000000       0.00000000 NMO Na        0       0.00000000      -0.00111690       0.00198301
Cl      -0.00376295      14.04961739      -0.00018442       1.00000000       0.00000000 CMO Cl        0      -0.00459701      -0.00344301      -0.00031184
Na       2.81000000      14.02403434      -0.00100424       1.00000000       0.00000000 NMO Na        0       0.00000000      -0.01058015      -0.00101661
Cl      -0.00028829      11.24088920       2.80895480       1.00000000       0.00000000 CMO Cl        0      -0.00101134       0.00005872       0.00056685
Na      -0.00174147      11.24132988       5.62281706       1.00000000       0.00000000 NMO Na        0       0.00096362      -0.00216813       0.00036209
Cl       2.81000000      14.05335322       8.42711754       1.00000000       0.00000000 CMO Cl        0       0.00000000      -0.00078760       0.00104178
Na      -0.00235223      14.04738166       8.43294737       1.00000000       0.00000000 NMO Na        0      -0.00015185      -0.00055912       0.00025952
Cl       2.81000000      11.24070448       5.62173039       1.00000000       0.00000000 CMO Cl        0       0.00000000      -0.00092628       0.00096662
Na       2.81000000      11.24116813       8.43401948       1.00000000       0.00000000 NMO Na        0      -0.00000000      -0.00314428      -0.00107492
Cl       0.00270775      14.05653986       5.61487572       1.00000000       0.00000000 CMO Cl        0      -0.00040548       0.00063111      -0.00009207
Na       2.81000000      14.04243632       5.62873630       1.00000000       0.00000000 NMO Na        0       0.00000000      -0.00363583       0.00261803
Cl       0.00200302      11.23864965       8.42706231       1.00000000       0.00000000 CMO Cl        0      -0.00058200       0.00069043       0.00043352
Na      -0.00194178      11.24050221      11.24050221       1.00000000       0.00000000 NMO Na        0      -0.00011418      -0.00043243      -0.00043243
Cl       2.81000000      14.05367024      14.05367024       1.00000000       0.00000000 CMO Cl        0       0.00000000      -0.00000727      -0.00000727
Na      -0.00244219      14.04714317      14.04714317       1.00000000       0.00000000 NMO Na        0      -0.00021642      -0.00017187      -0.00017187
Cl       2.81000000      11.23906991      11.23906991       1.00000000       0.00000000 CMO Cl        0       0.00000000      -0.00014515      -0.00014515
Na       2.81000000      11.24038943      14.04703045       1.00000000       0.00000000 NMO Na        0      -0.00000000       0.00013019      -0.00134851
Cl       0.00169201      14.05219822      11.23979842       1.00000000       0.00000000 CMO Cl        0      -0.00043891       0.00029275       0.00016207
Na       2.81000000      14.04703045      11.24038943       1.00000000       0.00000000 NMO Na        0      -0.00000000      -0.00134851       0.00013019
Cl       0.00169201      11.23979842      14.05219822       1.00000000       0.00000000 CMO Cl        0      -0.00043891       0.00016207       0.00029275
Na      -0.00201814      11.24006044      16.85709352       1.00000000       0.00000000 NMO Na        0       0.00006734      -0.00041316       0.00019216
Cl       2.81000000      14.04955548      19.66541625       1.00000000       0.00000000 CMO Cl        0      -0.00000000      -0.00352501      -0.00518105
Na      -0.00282621      14.04093821      19.66729444       1.00000000       0.00000000 NMO Na        0       0.00065832      -0.00136432       0.00040100
Cl       2.81000000      11.23978074      16.86030095       1.00000000       0.00000000 CMO Cl        0       0.00000000       0.00135664      -0.00304731
Na       2.81000000      11.24136374      19.66295219       1.00000000       0.00000000 NMO Na        0       0.00000000       0.00139833      -0.00228695
Cl       0.00300146      14.05690015      16.86549063       1.00000000       0.00000000 CMO Cl        0      -0.00022243       0.00103963       0.00034150
Na       2.81000000      14.04199658      16.85190494       1.00000000       0.00000000 NMO Na        0       0.00000000      -0.00133834      -0.00168931
Cl       0.00162852      11.23890170      19.67209846       1.00000000       0.00000000 CMO Cl        0      -0.00175663       0.00029108      -0.00025601
Na      -0.02191518      16.82371226       0.00038579       1.00000000       0.00000000 NMO Na        0      -0.00126828      -0.01021955      -0.00170012
Cl       2.81000000      19.69407031       2.72800431       1.00000000       0.00000000 CMO Cl        0      -0.00000000       0.01878769      -0.00346579
Na      -0.03480972      19.63683716       2.82419962       1.00000000       0.00000000 NMO Na        0       0.01036500      -0.00317162       0.00273839
Cl       2.81000000      16.79920228      -0.00498915       1.00000000       0.00000000 CMO Cl        0       0.00000000      -0.01689513      -0.00300946
Na       2.81000000      16.81838925       2.83262671       1.00000000       0.00000000 NMO Na        0       0.00000000      -0.00265106       0.00365532
Cl       0.09507514      19.76281335       0.00239458       1.00000000       0.00000000 CMO Cl        0      -0.00381138      -0.00262969      -0.00144752
Na       2.81000000      19.40881310      -0.00736616       1.00000000       0.00000000 NMO Na        0      -0.00000000      -0.01253763       0.00641853
Cl       0.01139193      16.87665040       2.79347501       1.00000000       0.00000000 CMO Cl        0      -0.00381156      -0.00754233      -0.00318546
Na      -0.00684371      16.85057646       5.62775547       1.00000000       0.00000000 NMO Na        0      -0.00013346      -0.00271455       0.00222991
Cl       2.81000000      19.66662868       8.43156133       1.00000000       0.00000000 CMO Cl        0       0.00000000      -0.00889240       0.01550520
Na      -0.00434167      19.66798589       8.43899122       1.00000000       0.00000000 NMO Na        0       0.00094865       0.00123924       0.00179793
Cl       2.81000000      16.87158314       5.60863982       1.00000000       0.00000000 CMO Cl        0      -0.00000000      -0.01166969       0.00361904
Na       2.81000000      16.85060320       8.43958241       1.00000000       0.00000000 NMO Na        0       0.00000000      -0.00447472       0.00581360
Cl       0.02403047      19.68405848       5.60074387       1.00000000       0.00000000 CMO Cl        0      -0.01069398      -0.00862694       0.00384028
Na       2.81000000      19.62971396       5.67367515       1.00000000       0.00000000 NMO Na        0       0.00000000       0.00039288      -0.00052255
Cl       0.00319182      16.86593092       8.42294341       1.00000000       0.00000000 CMO Cl        0      -0.00013294      -0.00021556      -0.00059924
Na      -0.00201814      16.85709352      11.24006044       1.00000000       0.00000000 NMO Na        0       0.00006734       0.00019216      -0.00041316
Cl       2.81000000      19.66541625      14.04955548       1.00000000       0.00000000 CMO Cl        0       0.00000000      -0.00518105      -0.00352501
Na      -0.00282621      19.66729444      14.04093821       1.00000000       0.00000000 NMO Na        0       0.00065832       0.00040100      -0.00136432
Cl       2.81000000      16.86030095      11.23978074       1.00000000       0.00000000 CMO Cl        0       0.00000000      -0.00304731       0.00135664
Na       2.81000000      16.85190494      14.04199658       1.00000000       0.00000000 NMO Na        0      -0.00000000      -0.00168931      -0.00133834
Cl       0.00162852      19.67209846      11.23890170       1.00000000       0.00000000 CMO Cl        0      -0.00175663      -0.00025601       0.00029108
Na       2.81000000      19.66295219      11.24136374       1.00000000       0.00000000 NMO Na        0       0.00000000      -0.00228695       0.00139833
Cl       0.00300146      16.86549063      14.05690015       1.00000000       0.00000000 CMO Cl        0      -0.00022243       0.00034150       0.00103963
Na      -0.00734449      16.85169355      16.85169355       1.00000000       0.00000000 NMO Na        0      -0.00033055       0.00122430       0.00122430
Cl       2.81000000      19.75741614      19.75741614       1.00000000       0.00000000 CMO Cl        0      -0.00000000      -0.00895215      -0.00895215
Na      -0.01606518      19.65871068      19.65871068       1.00000000       0.00000000 NMO Na        0       0.00522634       0.00421884       0.00421884
Cl       2.81000000      16.87666934      16.87666934       1.00000000       0.00000000 CMO Cl        0      -0.00000000      -0.00023666      -0.00023666
Na       2.81000000      16.82344089      19.64671731       1.00000000       0.00000000 NMO Na        0       0.00000000      -0.00906978      -0.00603180
Cl       0.01676696      19.68670007      16.88221787       1.00000000       0.00000000 CMO Cl        0       0.00159009       0.00423174       0.00523505
Na       2.81000000      19.64671731      16.82344089       1.00000000       0.00000000 NMO Na        0      -0.00000000      -0.00603180      -0.00906978
Cl       0.01676696      16.88221787      19.68670007       1.00000000       0.00000000 CMO Cl        0       0.00159009       0.00523505       0.00423174
Na       5.85395824       0.02007687       0.02007687       1.00000000       0.00000000 NMO Na        0       0.03183940      -0.01541939      -0.01541939
Cl       8.41290650       2.79331221       2.79331221       1.00000000       0.00000000 CMO Cl        0      -0.01855097      -0.00773031      -0.00773031
Na       5.60984718       2.77312295       2.77312295       1.00000000       0.00000000 NMO Na        0      -0.01107489       0.01426132       0.01426132
Cl       8.47770429      -0.00035128      -0.00035128       1.00000000       0.00000000 CMO Cl        0       0.02086668      -0.00127048      -0.00127048
Na       8.47366554      -0.00627444       2.83420278       1.00000000       0.00000000 NMO Na        0       0.00403328       0.00003165       0.00487678
Cl       5.59703379       2.75676063      -0.05346581       1.00000000       0.00000000 CMO Cl        0      -0.04546985      -0.02874844       0.02028203
Na       8.47366554       2.83420278      -0.00627444       1.00000000       0.00000000 NMO Na        0       0.00403328       0.00487678       0.00003165
Cl       5.59703379      -0.05346581       2.75676063       1.00000000       0.00000000 CMO Cl        0      -0.04546985       0.02028203      -0.02874844
Na       5.64997138      -0.00036880       5.64839759       1.00000000       0.00000000 NMO Na        0       0.00032708      -0.01127075       0.00750988
Cl       8.41938035       2.80836412       8.41900195       1.00000000       0.00000000 CMO Cl        0      -0.00109062       0.00106902      -0.00296157
Na       5.62644365       2.81234482       8.44306661       1.00000000       0.00000000 NMO Na        0      -0.00358534      -0.00125055      -0.00136628
Cl       8.41746196       0.00366051       5.61084591       1.00000000       0.00000000 CMO Cl        0       0.00742683      -0.00503478       0.00027102
Na       8.43875607      -0.00112297       8.43771150       1.00000000       0.00000000 NMO Na        0       0.00255882       0.00288951       0.00282634
Cl       5.57285935       2.79117858       5.57138246       1.00000000       0.00000000 CMO Cl        0       0.00741103      -0.00848517       0.00374992
Na       8.43448367       2.81652546       5.62126877       1.00000000       0.00000000 NMO Na        0      -0.00812925      -0.00071410      -0.00666129
Cl       5.62162324       0.00483505       8.42596530       1.00000000       0.00000000 CMO Cl        0       0.00571146      -0.00122821       0.00647320
Na       5.62592361      -0.00011801      11.24103187       1.00000000       0.00000000 NMO Na        0       0.00136133       0.00096118      -0.00082195
Cl       8.42514297       2.80731667      14.05656765       1.00000000       0.00000000 CMO Cl        0       0.00138967      -0.00030957       0.00024062
Na       5.62379640       2.81260095      14.04124247       1.00000000       0.00000000 NMO Na        0       0.00047927      -0.00038250      -0.00334832
Cl       8.42896623       0.00038292      11.23900293       1.00000000       0.00000000 CMO Cl        0       0.00226964      -0.00024491       0.00011248
Na       8.43817024      -0.00002572      14.04223263       1.00000000       0.00000000 NMO Na        0       0.00084916      -0.00014659      -0.00154207
Cl       5.62028829       2.80895480      11.24088920       1.00000000       0.00000000 CMO Cl        0       0.00101134       0.00056685       0.00005872
Na       8.43432838       2.81139263      11.24102243       1.00000000       0.00000000 NMO Na        0      -0.00082781       0.00051956      -0.00169098
Cl       5.62376295      -0.00018442      14.04961739       1.00000000       0.00000000 CMO Cl        0       0.00459701      -0.00031184      -0.00344301
Na       5.64191518       0.00038579      16.82371226       1.00000000       0.00000000 NMO Na        0       0.00126828      -0.00170012      -0.01021955
Cl       8.41858630       2.79451082      19.67587186       1.00000000       0.00000000 CMO Cl        0       0.00650753      -0.00054256      -0.00321570
Na       5.65480972       2.82419962      19.63683716       1.00000000       0.00000000 NMO Na        0      -0.01036500       0.00273839      -0.00317162
Cl       8.41219897      -0.00038297      16.87722058       1.00000000       0.00000000 CMO Cl        0      -0.00307526      -0.00075490       0.00362777
Na       8.46203398       0.00024446      19.65323232       1.00000000       0.00000000 NMO Na        0       0.00795044      -0.00020162      -0.00336470
Cl       5.60860807       2.79347501      16.87665040       1.00000000       0.00000000 CMO Cl        0       0.00381156      -0.00318546      -0.00754233
Na       8.44088975       2.81674208      16.85030880       1.00000000       0.00000000 NMO Na        0       0.00676868       0.00036956      -0.00657635
Cl       5.52492486       0.00239458      19.76281335       1.00000000       0.00000000 CMO Cl        0       0.00381138      -0.00144752      -0.00262969
Na       5.64997138       5.64839759      -0.00036880       1.00000000       0.00000000 NMO Na        0       0.00032708       0.00750988      -0.01127075
Cl       8.41938035       8.41900195       2.80836412       1.00000000       0.00000000 CMO Cl        0      -0.00109062      -0.00296157       0.00106902
Na       5.62644365       8.44306661       2.81234482       1.00000000       0.00000000 NMO Na        0      -0.00358534      -0.00136628      -0.00125055
Cl       8.41746196       5.61084591       0.00366051       1.00000000       0.00000000 CMO Cl        0       0.00742683       0.00027102      -0.00503478
Na       8.43448367       5.62126877       2.81652546       1.00000000       0.00000000 NMO Na        0      -0.00812925      -0.00666129      -0.00071410
Cl       5.62162324       8.42596530       0.00483505       1.00000000       0.00000000 CMO Cl        0       0.00571146       0.00647320      -0.00122821
Na       8.43875607       8.43771150      -0.00112297       1.00000000       0.00000000 NMO Na        0       0.00255882       0.00282634       0.00288951
Cl       5.57285935       5.57138246       2.79117858       1.00000000       0.00000000 CMO Cl        0       0.00741103       0.00374992      -0.00848517
Na       5.62812157       5.62147905       5.62147905       1.00000000       0.00000000 NMO Na        0      -0.00382455      -0.00849857      -0.00849857
Cl       8.42609599       8.42680351       8.42680351       1.00000000       0.00000000 CMO Cl        0       0.00142746       0.00082460       0.00082460
Na       5.62411818       8.43400252       8.43400252       1.00000000       0.00000000 NMO Na        0      -0.00110543      -0.00335630      -0.00335630
Cl       8.42044965       5.61231263       5.61231263       1.00000000       0.00000000 CMO Cl        0      -0.00523373      -0.00348932      -0.00348932
Na       8.43498327       5.62415089       8.43423495       1.00000000       0.00000000 NMO Na        0      -0.00243604       0.00008629      -0.00191414
Cl       5.61277947       8.41871111       5.61219924       1.00000000       0.00000000 CMO Cl        0      -0.00013079      -0.00691259      -0.00367117
Na       8.43498327       8.43423495       5.62415089       1.00000000       0.00000000 NMO Na        0      -0.00243604      -0.00191414       0.00008629
Cl       5.61277947       5.61219924       8.41871111       1.00000000       0.00000000 CMO Cl        0      -0.00013079      -0.00367117      -0.00691259
Na       5.62174147       5.62281706      11.24132988       1.00000000       0.00000000 NMO Na        0      -0.00096362       0.00036209      -0.00216813
Cl       8.42711105       8.42742415      14.05214701       1.00000000       0.00000000 CMO Cl        0       0.00015194      -0.00045872       0.00067423
Na       5.62235223       8.43294737      14.04738166       1.00000000       0.00000000 NMO Na        0       0.00015185       0.00025952      -0.00055912
Cl       8.42626402       5.61706961      11.23873008       1.00000000       0.00000000 CMO Cl        0       0.00037451      -0.00008437       0.00041156
Na       8.43374463       5.62333379      14.04647179       1.00000000       0.00000000 NMO Na        0      -0.00029674       0.00025523      -0.00065827
Cl       5.61799698       8.42706231      11.23864965       1.00000000       0.00000000 CMO Cl        0       0.00058200       0.00043352       0.00069043
Na       8.43264801       8.43208642      11.24060613       1.00000000       0.00000000 NMO Na        0      -0.00038600      -0.00025158      -0.00061518
Cl       5.61729225       5.61487572      14.05653986       1.00000000       0.00000000 CMO Cl        0       0.00040548      -0.00009207       0.00063111
Na       5.62684371       5.62775547      16.85057646       1.00000000       0.00000000 NMO Na        0       0.00013346       0.00222991      -0.00271455
Cl       8.42348793       8.42266441      19.67306453       1.00000000       0.00000000 CMO Cl        0      -0.00025509      -0.00126773       0.00008976
Na       5.62434167       8.43899122      19.66798589       1.00000000       0.00000000 NMO Na        0      -0.00094865       0.00179793       0.00123924
Cl       8.42155253       5.61289744      16.86798143       1.00000000       0.00000000 CMO Cl        0      -0.00163127      -0.00085728       0.00148410
Na       8.43728801       5.62695086      19.66541073       1.00000000       0.00000000 NMO Na        0       0.00156262       0.00336732      -0.00243868
Cl       5.61680818       8.42294341      16.86593092       1.00000000       0.00000000 CMO Cl        0       0.00013294      -0.00059924      -0.00021556
Na       8.43374828       8.43366458      16.85668321       1.00000000       0.00000000 NMO Na        0      -0.00052350      -0.00005003       0.00026439
Cl       5.59596953       5.60074387      19.68405848       1.00000000       0.00000000 CMO Cl        0       0.01069398       0.00384028      -0.00862694