
  **** **** ******  **  PROGRAM STARTED AT               2024-11-06 13:42:05.782
 ***** ** ***  *** **   PROGRAM STARTED ON                       BOOK-4GL9QDET17
 **    ****   ******    PROGRAM STARTED BY                                 mattw
 ***** **    ** ** **   PROGRAM PROCESS ID                                 23614
  **** **  *******  **  PROGRAM STARTED IN    /home/mattw/work/NEB/NaCl/cp2k_NEB

 CP2K| version string:                                          CP2K version 9.1
 CP2K| source code revision number:                                  git:d8d7100
 CP2K| cp2kflags: omp libint fftw3 libxc elpa parallel mpi3 scalapack spglib    
 CP2K| is freely available from                            https://www.cp2k.org/
 CP2K| Program compiled at                          Sun Jan  9 17:14:22 UTC 2022
 CP2K| Program compiled on                                       lcy02-amd64-025
 CP2K| Program compiled for                                Linux-x86_64-gfortran
 CP2K| Data directory path                                       /usr/share/cp2k
 CP2K| Input file name                                              NaCl-r-0.inp

 GLOBAL| Force Environment number                                              1
 GLOBAL| Basis set file name                                           BASIS_SET
 GLOBAL| Potential file name                                           POTENTIAL
 GLOBAL| MM Potential file name                                     MM_POTENTIAL
 GLOBAL| Coordinate file name                                        image_1.xyz
 GLOBAL| Method name                                                        CP2K
 GLOBAL| Project name                                                   NaCl-r-0
 GLOBAL| Run type                                                           BAND
 GLOBAL| FFT library                                                       FFTW3
 GLOBAL| Diagonalization library                                            ELPA
 GLOBAL| Minimum number of eigenvectors for ELPA usage                        16
 GLOBAL| Orthonormality check for eigenvectors                          DISABLED
 GLOBAL| Matrix multiplication library                                 ScaLAPACK
 GLOBAL| All-to-all communication in single precision                          F
 GLOBAL| FFTs using library dependent lengths                                  F
 GLOBAL| Grid backend                                                       AUTO
 GLOBAL| Global print level                                               MEDIUM
 GLOBAL| MPI I/O enabled                                                       T
 GLOBAL| Total number of message passing processes                             1
 GLOBAL| Number of threads for this process                                   16
 GLOBAL| This output is from process                                           0
 GLOBAL| Stack size for threads created by OpenMP (OMP_STACKSIZE)        default
 GLOBAL| CPU model name                      12th Gen Intel(R) Core(TM) i7-1260P

 MEMORY| system memory details [Kb]
 MEMORY|                        rank 0           min           max       average
 MEMORY| MemTotal             12251484      12251484      12251484      12251484
 MEMORY| MemFree               6956124       6956124       6956124       6956124
 MEMORY| Buffers                 11612         11612         11612         11612
 MEMORY| Cached                 512172        512172        512172        512172
 MEMORY| Slab                   242080        242080        242080        242080
 MEMORY| SReclaimable           159736        159736        159736        159736
 MEMORY| MemLikelyFree         7639644       7639644       7639644       7639644


 *** Fundamental physical constants (SI units) ***

 *** Literature: B. J. Mohr and B. N. Taylor,
 ***             CODATA recommended values of the fundamental physical
 ***             constants: 2006, Web Version 5.1
 ***             http://physics.nist.gov/constants

 Speed of light in vacuum [m/s]                             2.99792458000000E+08
 Magnetic constant or permeability of vacuum [N/A**2]       1.25663706143592E-06
 Electric constant or permittivity of vacuum [F/m]          8.85418781762039E-12
 Planck constant (h) [J*s]                                  6.62606896000000E-34
 Planck constant (h-bar) [J*s]                              1.05457162825177E-34
 Elementary charge [C]                                      1.60217648700000E-19
 Electron mass [kg]                                         9.10938215000000E-31
 Electron g factor [ ]                                     -2.00231930436220E+00
 Proton mass [kg]                                           1.67262163700000E-27
 Fine-structure constant                                    7.29735253760000E-03
 Rydberg constant [1/m]                                     1.09737315685270E+07
 Avogadro constant [1/mol]                                  6.02214179000000E+23
 Boltzmann constant [J/K]                                   1.38065040000000E-23
 Atomic mass unit [kg]                                      1.66053878200000E-27
 Bohr radius [m]                                            5.29177208590000E-11

 *** Conversion factors ***

 [u] -> [a.u.]                                              1.82288848426455E+03
 [Angstrom] -> [Bohr] = [a.u.]                              1.88972613288564E+00
 [a.u.] = [Bohr] -> [Angstrom]                              5.29177208590000E-01
 [a.u.] -> [s]                                              2.41888432650478E-17
 [a.u.] -> [fs]                                             2.41888432650478E-02
 [a.u.] -> [J]                                              4.35974393937059E-18
 [a.u.] -> [N]                                              8.23872205491840E-08
 [a.u.] -> [K]                                              3.15774647902944E+05
 [a.u.] -> [kJ/mol]                                         2.62549961709828E+03
 [a.u.] -> [kcal/mol]                                       6.27509468713739E+02
 [a.u.] -> [Pa]                                             2.94210107994716E+13
 [a.u.] -> [bar]                                            2.94210107994716E+08
 [a.u.] -> [atm]                                            2.90362800883016E+08
 [a.u.] -> [eV]                                             2.72113838565563E+01
 [a.u.] -> [Hz]                                             6.57968392072181E+15
 [a.u.] -> [1/cm] (wave numbers)                            2.19474631370540E+05
 [a.u./Bohr**2] -> [1/cm]                                   5.14048714338585E+03
 


                      ************* ******** ***********   
                     ************* **********************  
                     ****     **** ****      ***********   
                     ******** ****  *******     ****       
                     *******  ****   *******   ****        
                     ****     ****       ****  ****        
                     ****     **** **********  ****        
                      ****     **** ********    ****       
                     FRONTIERS IN SIMULATION TECHNOLOGY    
                                                           
                        C.J. Mundy, S. Balasubramanian,    
                     Ken Bagchi, J. Hutter, Ari Seitsonen  
                      IFW Kuo, T. Laino, J. VandeVondele   
                                 Version 1.0               

                                                           


 CELL| Volume [angstrom^3]:                                         11360.276992
 CELL| Vector a [angstrom]:      22.480     0.000     0.000   |a| =    22.480000
 CELL| Vector b [angstrom]:       0.000    22.480     0.000   |b| =    22.480000
 CELL| Vector c [angstrom]:       0.000     0.000    22.480   |c| =    22.480000
 CELL| Angle (b,c), alpha [degree]:                                    90.000000
 CELL| Angle (a,c), beta  [degree]:                                    90.000000
 CELL| Angle (a,b), gamma [degree]:                                    90.000000
 CELL| Numerically orthorhombic:                                             YES

 CELL_REF| Volume [angstrom^3]:                                     11360.276992
 CELL_REF| Vector a [angstrom    22.480     0.000     0.000   |a| =    22.480000
 CELL_REF| Vector b [angstrom     0.000    22.480     0.000   |b| =    22.480000
 CELL_REF| Vector c [angstrom     0.000     0.000    22.480   |c| =    22.480000
 CELL_REF| Angle (b,c), alpha [degree]:                                90.000000
 CELL_REF| Angle (a,c), beta  [degree]:                                90.000000
 CELL_REF| Angle (a,b), gamma [degree]:                                90.000000
 CELL_REF| Numerically orthorhombic:                                         YES

 EWALD| Summation is done by:                                               SPME
 EWALD| Alpha parameter [       ANGSTROM^-1]                              0.5000
 EWALD| Real Space Cutoff [          ANGSTROM]                            6.7478
 EWALD| G-space max. Miller index                         40        40        40
 EWALD| Spline interpolation order                                             6

 CELL_TOP| Volume [angstrom^3]:                                     11360.276992
 CELL_TOP| Vector a [angstrom    22.480     0.000     0.000   |a| =    22.480000
 CELL_TOP| Vector b [angstrom     0.000    22.480     0.000   |b| =    22.480000
 CELL_TOP| Vector c [angstrom     0.000     0.000    22.480   |c| =    22.480000
 CELL_TOP| Angle (b,c), alpha [degree]:                                90.000000
 CELL_TOP| Angle (a,c), beta  [degree]:                                90.000000
 CELL_TOP| Angle (a,b), gamma [degree]:                                90.000000
 CELL_TOP| Numerically orthorhombic:                                         YES
 CHARGE_INFO| Total Charge of the Classical System:                     1.000000

 FORCEFIELD| WARNING: A non Critical ForceField parameter is missing! CP2K GOES!
 FORCEFIELD| Non critical parameters are:Urey-Bradley,Torsions,Impropers, Opbends and 1-4
 FORCEFIELD| All missing parameters will not contribute to the potential energy!
 FORCEFIELD| Activate the print key FF_INFO to have a list of missing parameters


 SPLINE_INFO| Generating 3 splines for NONBONDED14 interactions 
              Due to 2 different atomic kinds
  ...1  ...2  ...3
 SPLINE_INFO| Number of unique splines computed:            1
 SPLINE_INFO| Done

 SPLINE_INFO| Generating 3 splines for NONBONDED interactions 
              Due to 2 different atomic kinds
  ...1  ...2  ...3
 SPLINE_INFO| Number of unique splines computed:            3
 SPLINE_INFO| Done


 MOLECULE KIND INFORMATION


 All atoms are their own molecule, skipping detailed information


 MODULE FIST:  ATOMIC COORDINATES IN ANGSTROM

  Atom  Kind  ATM_TYP       X           Y           Z          q(eff)       Mass

     1    1   Na         0.010153    0.036877    0.036877      1.00      22.9898
     2    1   Na        -0.233958    2.789923    2.789923      1.00      22.9898
     3    2   Cl         2.810000    0.391119    0.391119     -1.00      35.4530
     4    1   Na         2.810000   -0.255684    2.945122      1.00      22.9898
     5    2   Cl         0.022966    2.863466    0.053239     -1.00      35.4530
     6    1   Na         2.810000    2.945122   -0.255684      1.00      22.9898
     7    2   Cl         0.022966    0.053239    2.863466     -1.00      35.4530
     8    1   Na        -0.034810   -0.014200    5.653163      1.00      22.9898
     9    2   Cl         2.810000    2.814989    8.490798     -1.00      35.4530
    10    1   Na        -0.021915    2.809614    8.466288      1.00      22.9898
    11    2   Cl         2.810000    0.081996    5.595930     -1.00      35.4530
    12    1   Na         2.810000   -0.022627    8.471611      1.00      22.9898
    13    2   Cl         0.095075    2.807605    5.527187     -1.00      35.4530
    14    1   Na         2.810000    2.817366    5.881187      1.00      22.9898
    15    2   Cl         0.011392    0.016525    8.413350     -1.00      35.4530
    16    1   Na        -0.003796   -0.002601   11.248758      1.00      22.9898
    17    2   Cl         2.810000    2.811594   14.048505     -1.00      35.4530
    18    1   Na        -0.005924    2.810118   14.048968      1.00      22.9898
    19    2   Cl         2.810000   -0.003744   11.241223     -1.00      35.4530
    20    1   Na         2.810000   -0.005520   14.044414      1.00      22.9898
    21    2   Cl        -0.003763    2.810184   11.240383     -1.00      35.4530
    22    1   Na         2.810000    2.811004   11.265966      1.00      22.9898
    23    2   Cl        -0.000288    0.001045   14.049111     -1.00      35.4530
    24    1   Na        -0.006444   -0.002345   16.846933      1.00      22.9898
    25    2   Cl         2.810000    2.811879   19.613477     -1.00      35.4530
    26    1   Na        -0.029971    2.810369   19.641602      1.00      22.9898
    27    2   Cl         2.810000   -0.003611   16.844660     -1.00      35.4530
    28    1   Na         2.810000    0.009009   19.590419      1.00      22.9898
    29    2   Cl        -0.001623    2.805165   16.864035     -1.00      35.4530
    30    1   Na         2.810000    2.816905   16.824693      1.00      22.9898
    31    2   Cl         0.047141    0.018821   19.718618     -1.00      35.4530
    32    1   Na        -0.034810    5.653163   -0.014200      1.00      22.9898
    33    2   Cl         2.810000    8.490798    2.814989     -1.00      35.4530
    34    1   Na        -0.021915    8.466288    2.809614      1.00      22.9898
    35    2   Cl         2.810000    5.595930    0.081996     -1.00      35.4530
    36    1   Na         2.810000    5.881187    2.817366      1.00      22.9898
    37    2   Cl         0.011392    8.413350    0.016525     -1.00      35.4530
    38    1   Na         2.810000    8.471611   -0.022627      1.00      22.9898
    39    2   Cl         0.095075    5.527187    2.807605     -1.00      35.4530
    40    1   Na        -0.016065    5.631289    5.631289      1.00      22.9898
    41    2   Cl         2.810000    8.413331    8.413331     -1.00      35.4530
    42    1   Na        -0.007344    8.438306    8.438306      1.00      22.9898
    43    2   Cl         2.810000    5.532584    5.532584     -1.00      35.4530
    44    1   Na         2.810000    5.643283    8.466559      1.00      22.9898
    45    2   Cl         0.016767    8.407782    5.603300     -1.00      35.4530
    46    1   Na         2.810000    8.466559    5.643283      1.00      22.9898
    47    2   Cl         0.016767    5.603300    8.407782     -1.00      35.4530
    48    1   Na        -0.002826    5.622706   11.249062      1.00      22.9898
    49    2   Cl         2.810000    8.429699   14.050219     -1.00      35.4530
    50    1   Na        -0.002018    8.432906   14.049940      1.00      22.9898
    51    2   Cl         2.810000    5.624584   11.240445     -1.00      35.4530
    52    1   Na         2.810000    5.627048   14.048636      1.00      22.9898
    53    2   Cl         0.003001    8.424509   11.233100     -1.00      35.4530
    54    1   Na         2.810000    8.438095   11.248003      1.00      22.9898
    55    2   Cl         0.001629    5.617902   14.051098     -1.00      35.4530
    56    1   Na        -0.004342    5.622014   16.851009      1.00      22.9898
    57    2   Cl         2.810000    8.418417   19.681360     -1.00      35.4530
    58    1   Na        -0.006844    8.439424   19.662245      1.00      22.9898
    59    2   Cl         2.810000    5.623371   16.858439     -1.00      35.4530
    60    1   Na         2.810000    5.660286   19.616325      1.00      22.9898
    61    2   Cl         0.003192    8.424069   16.867057     -1.00      35.4530
    62    1   Na         2.810000    8.439397   16.850418      1.00      22.9898
    63    2   Cl         0.024030    5.605942   19.689256     -1.00      35.4530
    64    1   Na        -0.003796   11.248758   -0.002601      1.00      22.9898
    65    2   Cl         2.810000   14.048505    2.811594     -1.00      35.4530
    66    1   Na        -0.005924   14.048968    2.810118      1.00      22.9898
    67    2   Cl         2.810000   11.241223   -0.003744     -1.00      35.4530
    68    1   Na         2.810000   11.265966    2.811004      1.00      22.9898
    69    2   Cl        -0.000288   14.049111    0.001045     -1.00      35.4530
    70    1   Na         2.810000   14.044414   -0.005520      1.00      22.9898
    71    2   Cl        -0.003763   11.240383    2.810184     -1.00      35.4530
    72    1   Na        -0.002826   11.249062    5.622706      1.00      22.9898
    73    2   Cl         2.810000   14.050219    8.429699     -1.00      35.4530
    74    1   Na        -0.002018   14.049940    8.432906      1.00      22.9898
    75    2   Cl         2.810000   11.240445    5.624584     -1.00      35.4530
    76    1   Na         2.810000   11.248003    8.438095      1.00      22.9898
    77    2   Cl         0.001629   14.051098    5.617902     -1.00      35.4530
    78    1   Na         2.810000   14.048636    5.627048      1.00      22.9898
    79    2   Cl         0.003001   11.233100    8.424509     -1.00      35.4530
    80    1   Na        -0.002442   11.242857   11.242857      1.00      22.9898
    81    2   Cl         2.810000   14.050930   14.050930     -1.00      35.4530
    82    1   Na        -0.001942   14.049498   14.049498      1.00      22.9898
    83    2   Cl         2.810000   11.236330   11.236330     -1.00      35.4530
    84    1   Na         2.810000   11.242970   14.049611      1.00      22.9898
    85    2   Cl         0.001692   14.050202   11.237802     -1.00      35.4530
    86    1   Na         2.810000   14.049611   11.242970      1.00      22.9898
    87    2   Cl         0.001692   11.237802   14.050202     -1.00      35.4530
    88    1   Na        -0.002352   11.242618   16.857053      1.00      22.9898
    89    2   Cl         2.810000   14.049296   19.668270     -1.00      35.4530
    90    1   Na        -0.001741   14.048670   19.667183      1.00      22.9898
    91    2   Cl         2.810000   11.236647   16.862882     -1.00      35.4530
    92    1   Na         2.810000   11.247564   19.661264      1.00      22.9898
    93    2   Cl         0.002003   14.051350   16.862938     -1.00      35.4530
    94    1   Na         2.810000   14.048832   16.855981      1.00      22.9898
    95    2   Cl         0.002708   11.233460   19.675124     -1.00      35.4530
    96    1   Na        -0.006444   16.846933   -0.002345      1.00      22.9898
    97    2   Cl         2.810000   19.613477    2.811879     -1.00      35.4530
    98    1   Na        -0.029971   19.641602    2.810369      1.00      22.9898
    99    2   Cl         2.810000   16.844660   -0.003611     -1.00      35.4530
   100    1   Na         2.810000   16.824693    2.816905      1.00      22.9898
   101    2   Cl         0.047141   19.718618    0.018821     -1.00      35.4530
   102    1   Na         2.810000   19.590419    0.009009      1.00      22.9898
   103    2   Cl        -0.001623   16.864035    2.805165     -1.00      35.4530
   104    1   Na        -0.004342   16.851009    5.622014      1.00      22.9898
   105    2   Cl         2.810000   19.681360    8.418417     -1.00      35.4530
   106    1   Na        -0.006844   19.662245    8.439424      1.00      22.9898
   107    2   Cl         2.810000   16.858439    5.623371     -1.00      35.4530
   108    1   Na         2.810000   16.850418    8.439397      1.00      22.9898
   109    2   Cl         0.024030   19.689256    5.605942     -1.00      35.4530
   110    1   Na         2.810000   19.616325    5.660286      1.00      22.9898
   111    2   Cl         0.003192   16.867057    8.424069     -1.00      35.4530
   112    1   Na        -0.002352   16.857053   11.242618      1.00      22.9898
   113    2   Cl         2.810000   19.668270   14.049296     -1.00      35.4530
   114    1   Na        -0.001741   19.667183   14.048670      1.00      22.9898
   115    2   Cl         2.810000   16.862882   11.236647     -1.00      35.4530
   116    1   Na         2.810000   16.855981   14.048832      1.00      22.9898
   117    2   Cl         0.002708   19.675124   11.233460     -1.00      35.4530
   118    1   Na         2.810000   19.661264   11.247564      1.00      22.9898
   119    2   Cl         0.002003   16.862938   14.051350     -1.00      35.4530
   120    1   Na        -0.004118   16.855997   16.855997      1.00      22.9898
   121    2   Cl         2.810000   19.725370   19.725370     -1.00      35.4530
   122    1   Na        -0.008122   19.668521   19.668521      1.00      22.9898
   123    2   Cl         2.810000   16.870125   16.870125     -1.00      35.4530
   124    1   Na         2.810000   16.851214   19.662077      1.00      22.9898
   125    2   Cl         0.007221   19.677801   16.871289     -1.00      35.4530
   126    1   Na         2.810000   19.662077   16.851214      1.00      22.9898
   127    2   Cl         0.007221   16.871289   19.677801     -1.00      35.4530
   128    1   Na         5.609847    0.036877    0.036877      1.00      22.9898
   129    2   Cl         8.477704    2.810351    2.810351     -1.00      35.4530
   130    1   Na         5.853958    2.789923    2.789923      1.00      22.9898
   131    2   Cl         8.412907    0.016688    0.016688     -1.00      35.4530
   132    1   Na         8.473666   -0.024203    2.816274      1.00      22.9898
   133    2   Cl         5.597034    2.863466    0.053239     -1.00      35.4530
   134    1   Na         8.473666    2.816274   -0.024203      1.00      22.9898
   135    2   Cl         5.597034    0.053239    2.863466     -1.00      35.4530
   136    1   Na         5.654810   -0.014200    5.653163      1.00      22.9898
   137    2   Cl         8.412199    2.810383    8.412779     -1.00      35.4530
   138    1   Na         5.641915    2.809614    8.466288      1.00      22.9898
   139    2   Cl         8.418586    0.015489    5.614128     -1.00      35.4530
   140    1   Na         8.440890   -0.006742    8.439691      1.00      22.9898
   141    2   Cl         5.524925    2.807605    5.527187     -1.00      35.4530
   142    1   Na         8.462034    2.809756    5.636768      1.00      22.9898
   143    2   Cl         5.608608    0.016525    8.413350     -1.00      35.4530
   144    1   Na         5.623796   -0.002601   11.248758      1.00      22.9898
   145    2   Cl         8.428966    2.809617   14.050997     -1.00      35.4530
   146    1   Na         5.625924    2.810118   14.048968      1.00      22.9898
   147    2   Cl         8.425143    0.002683   11.233432     -1.00      35.4530
   148    1   Na         8.434328   -0.001393   14.048978      1.00      22.9898
   149    2   Cl         5.623763    2.810184   11.240383     -1.00      35.4530
   150    1   Na         8.438170    2.810026   11.247767      1.00      22.9898
   151    2   Cl         5.620288    0.001045   14.049111     -1.00      35.4530
   152    1   Na         5.626444   -0.002345   16.846933      1.00      22.9898
   153    2   Cl         8.417462    2.806339   19.679154     -1.00      35.4530
   154    1   Na         5.649971    2.810369   19.641602      1.00      22.9898
   155    2   Cl         8.419380    0.001636   16.870998     -1.00      35.4530
   156    1   Na         8.434484   -0.006525   19.668731      1.00      22.9898
   157    2   Cl         5.621623    2.805165   16.864035     -1.00      35.4530
   158    1   Na         8.438756    2.811123   16.852289      1.00      22.9898
   159    2   Cl         5.572859    0.018821   19.718618     -1.00      35.4530
   160    1   Na         5.654810    5.653163   -0.014200      1.00      22.9898
   161    2   Cl         8.412199    8.412779    2.810383     -1.00      35.4530
   162    1   Na         5.641915    8.466288    2.809614      1.00      22.9898
   163    2   Cl         8.418586    5.614128    0.015489     -1.00      35.4530
   164    1   Na         8.462034    5.636768    2.809756      1.00      22.9898
   165    2   Cl         5.608608    8.413350    0.016525     -1.00      35.4530
   166    1   Na         8.440890    8.439691   -0.006742      1.00      22.9898
   167    2   Cl         5.524925    5.527187    2.807605     -1.00      35.4530
   168    1   Na         5.636065    5.631289    5.631289      1.00      22.9898
   169    2   Cl         8.422090    8.422586    8.422586     -1.00      35.4530
   170    1   Na         5.627344    8.438306    8.438306      1.00      22.9898
   171    2   Cl         8.408579    5.604611    5.604611     -1.00      35.4530
   172    1   Na         8.438987    5.626763    8.438195      1.00      22.9898
   173    2   Cl         5.603233    8.407782    5.603300     -1.00      35.4530
   174    1   Na         8.438987    8.438195    5.626763      1.00      22.9898
   175    2   Cl         5.603233    5.603300    8.407782     -1.00      35.4530
   176    1   Na         5.622826    5.622706   11.249062      1.00      22.9898
   177    2   Cl         8.426912    8.427201   14.050080     -1.00      35.4530
   178    1   Na         5.622018    8.432906   14.049940      1.00      22.9898
   179    2   Cl         8.424174    5.617106   11.233181     -1.00      35.4530
   180    1   Na         8.433378    5.621922   14.049718      1.00      22.9898
   181    2   Cl         5.616999    8.424509   11.233100     -1.00      35.4530
   182    1   Na         8.433735    8.433425   11.243763      1.00      22.9898
   183    2   Cl         5.618371    5.617902   14.051098     -1.00      35.4530
   184    1   Na         5.624342    5.622014   16.851009      1.00      22.9898
   185    2   Cl         8.421553    8.422019   19.677103     -1.00      35.4530
   186    1   Na         5.626844    8.439424   19.662245      1.00      22.9898
   187    2   Cl         8.423488    5.616935   16.867336     -1.00      35.4530
   188    1   Na         8.437288    5.624589   19.663049      1.00      22.9898
   189    2   Cl         5.616808    8.424069   16.867057     -1.00      35.4530
   190    1   Na         8.433748    8.433317   16.856335      1.00      22.9898
   191    2   Cl         5.595970    5.605942   19.689256     -1.00      35.4530
   192    1   Na         5.623796   11.248758   -0.002601      1.00      22.9898
   193    2   Cl         8.428966   14.050997    2.809617     -1.00      35.4530
   194    1   Na         5.625924   14.048968    2.810118      1.00      22.9898
   195    2   Cl         8.425143   11.233432    0.002683     -1.00      35.4530
   196    1   Na         8.438170   11.247767    2.810026      1.00      22.9898
   197    2   Cl         5.620288   14.049111    0.001045     -1.00      35.4530
   198    1   Na         8.434328   14.048978   -0.001393      1.00      22.9898
   199    2   Cl         5.623763   11.240383    2.810184     -1.00      35.4530
   200    1   Na         5.622826   11.249062    5.622706      1.00      22.9898
   201    2   Cl         8.426912   14.050080    8.427201     -1.00      35.4530
   202    1   Na         5.622018   14.049940    8.432906      1.00      22.9898
   203    2   Cl         8.424174   11.233181    5.617106     -1.00      35.4530
   204    1   Na         8.433735   11.243763    8.433425      1.00      22.9898
   205    2   Cl         5.618371   14.051098    5.617902     -1.00      35.4530
   206    1   Na         8.433378   14.049718    5.621922      1.00      22.9898
   207    2   Cl         5.616999   11.233100    8.424509     -1.00      35.4530
   208    1   Na         5.622442   11.242857   11.242857      1.00      22.9898
   209    2   Cl         8.427732   14.050333   14.050333     -1.00      35.4530
   210    1   Na         5.621942   14.049498   14.049498      1.00      22.9898
   211    2   Cl         8.427212   11.237629   11.237629     -1.00      35.4530
   212    1   Na         8.432363   11.241640   14.049877      1.00      22.9898
   213    2   Cl         5.618308   14.050202   11.237802     -1.00      35.4530
   214    1   Na         8.432363   14.049877   11.241640      1.00      22.9898
   215    2   Cl         5.618308   11.237802   14.050202     -1.00      35.4530
   216    1   Na         5.622352   11.242618   16.857053      1.00      22.9898
   217    2   Cl         8.426264   14.051270   19.672930     -1.00      35.4530
   218    1   Na         5.621741   14.048670   19.667183      1.00      22.9898
   219    2   Cl         8.427111   11.237853   16.862576     -1.00      35.4530
   220    1   Na         8.433745   11.243528   19.666666      1.00      22.9898
   221    2   Cl         5.617997   14.051350   16.862938     -1.00      35.4530
   222    1   Na         8.432648   14.049394   16.857914      1.00      22.9898
   223    2   Cl         5.617292   11.233460   19.675124     -1.00      35.4530
   224    1   Na         5.626444   16.846933   -0.002345      1.00      22.9898
   225    2   Cl         8.417462   19.679154    2.806339     -1.00      35.4530
   226    1   Na         5.649971   19.641602    2.810369      1.00      22.9898
   227    2   Cl         8.419380   16.870998    0.001636     -1.00      35.4530
   228    1   Na         8.438756   16.852289    2.811123      1.00      22.9898
   229    2   Cl         5.572859   19.718618    0.018821     -1.00      35.4530
   230    1   Na         8.434484   19.668731   -0.006525      1.00      22.9898
   231    2   Cl         5.621623   16.864035    2.805165     -1.00      35.4530
   232    1   Na         5.624342   16.851009    5.622014      1.00      22.9898
   233    2   Cl         8.421553   19.677103    8.422019     -1.00      35.4530
   234    1   Na         5.626844   19.662245    8.439424      1.00      22.9898
   235    2   Cl         8.423488   16.867336    5.616935     -1.00      35.4530
   236    1   Na         8.433748   16.856335    8.433317      1.00      22.9898
   237    2   Cl         5.595970   19.689256    5.605942     -1.00      35.4530
   238    1   Na         8.437288   19.663049    5.624589      1.00      22.9898
   239    2   Cl         5.616808   16.867057    8.424069     -1.00      35.4530
   240    1   Na         5.622352   16.857053   11.242618      1.00      22.9898
   241    2   Cl         8.426264   19.672930   14.051270     -1.00      35.4530
   242    1   Na         5.621741   19.667183   14.048670      1.00      22.9898
   243    2   Cl         8.427111   16.862576   11.237853     -1.00      35.4530
   244    1   Na         8.432648   16.857914   14.049394      1.00      22.9898
   245    2   Cl         5.617292   19.675124   11.233460     -1.00      35.4530
   246    1   Na         8.433745   19.666666   11.243528      1.00      22.9898
   247    2   Cl         5.617997   16.862938   14.051350     -1.00      35.4530
   248    1   Na         5.624118   16.855997   16.855997      1.00      22.9898
   249    2   Cl         8.420450   19.677687   19.677687     -1.00      35.4530
   250    1   Na         5.628122   19.668521   19.668521      1.00      22.9898
   251    2   Cl         8.426096   16.863196   16.863196     -1.00      35.4530
   252    1   Na         8.434983   16.855765   19.665849      1.00      22.9898
   253    2   Cl         5.612779   19.677801   16.871289     -1.00      35.4530
   254    1   Na         8.434983   19.665849   16.855765      1.00      22.9898
   255    2   Cl         5.612779   16.871289   19.677801     -1.00      35.4530
   256    1   Na        11.251538   -0.002682   -0.002682      1.00      22.9898
   257    2   Cl        14.050000    2.810187    2.810187     -1.00      35.4530
   258    1   Na        11.265308    2.810057    2.810057      1.00      22.9898
   259    2   Cl        14.050000    0.001045    0.001045     -1.00      35.4530
   260    1   Na        14.050000   -0.005227    2.810933      1.00      22.9898
   261    2   Cl        11.242411    2.811394   -0.003496     -1.00      35.4530
   262    1   Na        14.050000    2.810933   -0.005227      1.00      22.9898
   263    2   Cl        11.242411   -0.003496    2.811394     -1.00      35.4530
   264    1   Na        11.249960   -0.002330    5.623803      1.00      22.9898
   265    2   Cl        14.050000    2.810042    8.430196     -1.00      35.4530
   266    1   Na        11.247767    2.809927    8.436958      1.00      22.9898
   267    2   Cl        14.050000    0.001020    5.619752     -1.00      35.4530
   268    1   Na        14.050000   -0.001529    8.432714      1.00      22.9898
   269    2   Cl        11.239613    2.810398    5.623200     -1.00      35.4530
   270    1   Na        14.050000    2.809957    5.625194      1.00      22.9898
   271    2   Cl        11.233594    0.002582    8.425716     -1.00      35.4530
   272    1   Na        11.243504   -0.002075   11.242602      1.00      22.9898
   273    2   Cl        14.050000    2.809898   14.049967     -1.00      35.4530
   274    1   Na        11.243598    2.810290   14.049967      1.00      22.9898
   275    2   Cl        14.050000    0.001341   11.237967     -1.00      35.4530
   276    1   Na        14.050000   -0.001328   14.049836      1.00      22.9898
   277    2   Cl        11.235834    2.809946   11.236496     -1.00      35.4530
   278    1   Na        14.050000    2.810097   11.242874      1.00      22.9898
   279    2   Cl        11.236746    0.001263   14.050463     -1.00      35.4530
   280    1   Na        11.243215   -0.001739   16.857334      1.00      22.9898
   281    2   Cl        14.050000    2.810218   19.669665     -1.00      35.4530
   282    1   Na        11.248424    2.809549   19.662288      1.00      22.9898
   283    2   Cl        14.050000    0.001235   16.861235     -1.00      35.4530
   284    1   Na        14.050000   -0.001494   19.666485      1.00      22.9898
   285    2   Cl        11.235920    2.809864   16.863095     -1.00      35.4530
   286    1   Na        14.050000    2.810003   16.857173      1.00      22.9898
   287    2   Cl        11.234592    0.002190   19.673615     -1.00      35.4530
   288    1   Na        11.249960    5.623803   -0.002330      1.00      22.9898
   289    2   Cl        14.050000    8.430196    2.810042     -1.00      35.4530
   290    1   Na        11.247767    8.436958    2.809927      1.00      22.9898
   291    2   Cl        14.050000    5.619752    0.001020     -1.00      35.4530
   292    1   Na        14.050000    5.625194    2.809957      1.00      22.9898
   293    2   Cl        11.233594    8.425716    0.002582     -1.00      35.4530
   294    1   Na        14.050000    8.432714   -0.001529      1.00      22.9898
   295    2   Cl        11.239613    5.623200    2.810398     -1.00      35.4530
   296    1   Na        11.249129    5.622398    5.622398      1.00      22.9898
   297    2   Cl        14.050000    8.427410    8.427410     -1.00      35.4530
   298    1   Na        11.244075    8.433253    8.433253      1.00      22.9898
   299    2   Cl        14.050000    5.618963    5.618963     -1.00      35.4530
   300    1   Na        14.050000    5.621535    8.432579      1.00      22.9898
   301    2   Cl        11.232915    8.424983    5.617400     -1.00      35.4530
   302    1   Na        14.050000    8.432579    5.621535      1.00      22.9898
   303    2   Cl        11.232915    5.617400    8.424983     -1.00      35.4530
   304    1   Na        11.243245    5.622191   11.242759      1.00      22.9898
   305    2   Cl        14.050000    8.428229   14.050016     -1.00      35.4530
   306    1   Na        11.242048    8.432000   14.049988      1.00      22.9898
   307    2   Cl        14.050000    5.618566   11.237759     -1.00      35.4530
   308    1   Na        14.050000    5.621488   14.050031      1.00      22.9898
   309    2   Cl        11.237310    8.427554   11.237640     -1.00      35.4530
   310    1   Na        14.050000    8.431976   11.241718      1.00      22.9898
   311    2   Cl        11.237224    5.618480   14.050040     -1.00      35.4530
   312    1   Na        11.243149    5.622121   16.857418      1.00      22.9898
   313    2   Cl        14.050000    8.427461   19.672528     -1.00      35.4530
   314    1   Na        11.243817    8.432898   19.666800      1.00      22.9898
   315    2   Cl        14.050000    5.618577   16.862266     -1.00      35.4530
   316    1   Na        14.050000    5.621510   19.667438      1.00      22.9898
   317    2   Cl        11.237324    8.427647   16.862347     -1.00      35.4530
   318    1   Na        14.050000    8.431906   16.858273      1.00      22.9898
   319    2   Cl        11.232602    5.617018   19.674837     -1.00      35.4530
   320    1   Na        11.243504   11.242602   -0.002075      1.00      22.9898
   321    2   Cl        14.050000   14.049967    2.809898     -1.00      35.4530
   322    1   Na        11.243598   14.049967    2.810290      1.00      22.9898
   323    2   Cl        14.050000   11.237967    0.001341     -1.00      35.4530
   324    1   Na        14.050000   11.242874    2.810097      1.00      22.9898
   325    2   Cl        11.236746   14.050463    0.001263     -1.00      35.4530
   326    1   Na        14.050000   14.049836   -0.001328      1.00      22.9898
   327    2   Cl        11.235834   11.236496    2.809946     -1.00      35.4530
   328    1   Na        11.243245   11.242759    5.622191      1.00      22.9898
   329    2   Cl        14.050000   14.050016    8.428229     -1.00      35.4530
   330    1   Na        11.242048   14.049988    8.432000      1.00      22.9898
   331    2   Cl        14.050000   11.237759    5.618566     -1.00      35.4530
   332    1   Na        14.050000   11.241718    8.431976      1.00      22.9898
   333    2   Cl        11.237224   14.050040    5.618480     -1.00      35.4530
   334    1   Na        14.050000   14.050031    5.621488      1.00      22.9898
   335    2   Cl        11.237310   11.237640    8.427554     -1.00      35.4530
   336    1   Na        11.241863   11.241574   11.241574      1.00      22.9898
   337    2   Cl        14.050000   14.050122   14.050122     -1.00      35.4530
   338    1   Na        11.241523   14.049840   14.049840      1.00      22.9898
   339    2   Cl        14.050000   11.238651   11.238651     -1.00      35.4530
   340    1   Na        14.050000   11.241117   14.049937      1.00      22.9898
   341    2   Cl        11.238340   14.050087   11.238705     -1.00      35.4530
   342    1   Na        14.050000   14.049937   11.241117      1.00      22.9898
   343    2   Cl        11.238340   11.238705   14.050087     -1.00      35.4530
   344    1   Na        11.241926   11.241419   16.858310      1.00      22.9898
   345    2   Cl        14.050000   14.050118   19.671746     -1.00      35.4530
   346    1   Na        11.242376   14.049749   19.667867      1.00      22.9898
   347    2   Cl        14.050000   11.238766   16.861444     -1.00      35.4530
   348    1   Na        14.050000   11.241525   19.667993      1.00      22.9898
   349    2   Cl        11.238126   14.050266   16.861550     -1.00      35.4530
   350    1   Na        14.050000   14.049869   16.858718      1.00      22.9898
   351    2   Cl        11.237171   11.237872   19.672412     -1.00      35.4530
   352    1   Na        11.243215   16.857334   -0.001739      1.00      22.9898
   353    2   Cl        14.050000   19.669665    2.810218     -1.00      35.4530
   354    1   Na        11.248424   19.662288    2.809549      1.00      22.9898
   355    2   Cl        14.050000   16.861235    0.001235     -1.00      35.4530
   356    1   Na        14.050000   16.857173    2.810003      1.00      22.9898
   357    2   Cl        11.234592   19.673615    0.002190     -1.00      35.4530
   358    1   Na        14.050000   19.666485   -0.001494      1.00      22.9898
   359    2   Cl        11.235920   16.863095    2.809864     -1.00      35.4530
   360    1   Na        11.243149   16.857418    5.622121      1.00      22.9898
   361    2   Cl        14.050000   19.672528    8.427461     -1.00      35.4530
   362    1   Na        11.243817   19.666800    8.432898      1.00      22.9898
   363    2   Cl        14.050000   16.862266    5.618577     -1.00      35.4530
   364    1   Na        14.050000   16.858273    8.431906      1.00      22.9898
   365    2   Cl        11.232602   19.674837    5.617018     -1.00      35.4530
   366    1   Na        14.050000   19.667438    5.621510      1.00      22.9898
   367    2   Cl        11.237324   16.862347    8.427647     -1.00      35.4530
   368    1   Na        11.241926   16.858310   11.241419      1.00      22.9898
   369    2   Cl        14.050000   19.671746   14.050118     -1.00      35.4530
   370    1   Na        11.242376   19.667867   14.049749      1.00      22.9898
   371    2   Cl        14.050000   16.861444   11.238766     -1.00      35.4530
   372    1   Na        14.050000   16.858718   14.049869      1.00      22.9898
   373    2   Cl        11.237171   19.672412   11.237872     -1.00      35.4530
   374    1   Na        14.050000   19.667993   11.241525      1.00      22.9898
   375    2   Cl        11.238126   16.861550   14.050266     -1.00      35.4530
   376    1   Na        11.242299   16.858308   16.858308      1.00      22.9898
   377    2   Cl        14.050000   19.672199   19.672199     -1.00      35.4530
   378    1   Na        11.244363   19.667265   19.667265      1.00      22.9898
   379    2   Cl        14.050000   16.861433   16.861433     -1.00      35.4530
   380    1   Na        14.050000   16.858458   19.668231      1.00      22.9898
   381    2   Cl        11.236582   19.672330   16.862347     -1.00      35.4530
   382    1   Na        14.050000   19.668231   16.858458      1.00      22.9898
   383    2   Cl        11.236582   16.862347   19.672330     -1.00      35.4530
   384    1   Na        16.848462   -0.002682   -0.002682      1.00      22.9898
   385    2   Cl        19.622296    2.810351    2.810351     -1.00      35.4530
   386    1   Na        16.834692    2.810057    2.810057      1.00      22.9898
   387    2   Cl        19.687093    0.016688    0.016688     -1.00      35.4530
   388    1   Na        19.626334   -0.024203    2.816274      1.00      22.9898
   389    2   Cl        16.857589    2.811394   -0.003496     -1.00      35.4530
   390    1   Na        19.626334    2.816274   -0.024203      1.00      22.9898
   391    2   Cl        16.857589   -0.003496    2.811394     -1.00      35.4530
   392    1   Na        16.850040   -0.002330    5.623803      1.00      22.9898
   393    2   Cl        19.687801    2.810383    8.412779     -1.00      35.4530
   394    1   Na        16.852233    2.809927    8.436958      1.00      22.9898
   395    2   Cl        19.681414    0.015489    5.614128     -1.00      35.4530
   396    1   Na        19.659110   -0.006742    8.439691      1.00      22.9898
   397    2   Cl        16.860387    2.810398    5.623200     -1.00      35.4530
   398    1   Na        19.637966    2.809756    5.636768      1.00      22.9898
   399    2   Cl        16.866406    0.002582    8.425716     -1.00      35.4530
   400    1   Na        16.856496   -0.002075   11.242602      1.00      22.9898
   401    2   Cl        19.671034    2.809617   14.050997     -1.00      35.4530
   402    1   Na        16.856402    2.810290   14.049967      1.00      22.9898
   403    2   Cl        19.674857    0.002683   11.233432     -1.00      35.4530
   404    1   Na        19.665672   -0.001393   14.048978      1.00      22.9898
   405    2   Cl        16.864166    2.809946   11.236496     -1.00      35.4530
   406    1   Na        19.661830    2.810026   11.247767      1.00      22.9898
   407    2   Cl        16.863254    0.001263   14.050463     -1.00      35.4530
   408    1   Na        16.856785   -0.001739   16.857334      1.00      22.9898
   409    2   Cl        19.682538    2.806339   19.679154     -1.00      35.4530
   410    1   Na        16.851576    2.809549   19.662288      1.00      22.9898
   411    2   Cl        19.680620    0.001636   16.870998     -1.00      35.4530
   412    1   Na        19.665516   -0.006525   19.668731      1.00      22.9898
   413    2   Cl        16.864080    2.809864   16.863095     -1.00      35.4530
   414    1   Na        19.661244    2.811123   16.852289      1.00      22.9898
   415    2   Cl        16.865408    0.002190   19.673615     -1.00      35.4530
   416    1   Na        16.850040    5.623803   -0.002330      1.00      22.9898
   417    2   Cl        19.687801    8.412779    2.810383     -1.00      35.4530
   418    1   Na        16.852233    8.436958    2.809927      1.00      22.9898
   419    2   Cl        19.681414    5.614128    0.015489     -1.00      35.4530
   420    1   Na        19.637966    5.636768    2.809756      1.00      22.9898
   421    2   Cl        16.866406    8.425716    0.002582     -1.00      35.4530
   422    1   Na        19.659110    8.439691   -0.006742      1.00      22.9898
   423    2   Cl        16.860387    5.623200    2.810398     -1.00      35.4530
   424    1   Na        16.850871    5.622398    5.622398      1.00      22.9898
   425    2   Cl        19.677910    8.422586    8.422586     -1.00      35.4530
   426    1   Na        16.855925    8.433253    8.433253      1.00      22.9898
   427    2   Cl        19.691421    5.604611    5.604611     -1.00      35.4530
   428    1   Na        19.661013    5.626763    8.438195      1.00      22.9898
   429    2   Cl        16.867085    8.424983    5.617400     -1.00      35.4530
   430    1   Na        19.661013    8.438195    5.626763      1.00      22.9898
   431    2   Cl        16.867085    5.617400    8.424983     -1.00      35.4530
   432    1   Na        16.856755    5.622191   11.242759      1.00      22.9898
   433    2   Cl        19.673088    8.427201   14.050080     -1.00      35.4530
   434    1   Na        16.857952    8.432000   14.049988      1.00      22.9898
   435    2   Cl        19.675826    5.617106   11.233181     -1.00      35.4530
   436    1   Na        19.666622    5.621922   14.049718      1.00      22.9898
   437    2   Cl        16.862690    8.427554   11.237640     -1.00      35.4530
   438    1   Na        19.666265    8.433425   11.243763      1.00      22.9898
   439    2   Cl        16.862776    5.618480   14.050040     -1.00      35.4530
   440    1   Na        16.856851    5.622121   16.857418      1.00      22.9898
   441    2   Cl        19.678447    8.422019   19.677103     -1.00      35.4530
   442    1   Na        16.856183    8.432898   19.666800      1.00      22.9898
   443    2   Cl        19.676512    5.616935   16.867336     -1.00      35.4530
   444    1   Na        19.662712    5.624589   19.663049      1.00      22.9898
   445    2   Cl        16.862676    8.427647   16.862347     -1.00      35.4530
   446    1   Na        19.666252    8.433317   16.856335      1.00      22.9898
   447    2   Cl        16.867398    5.617018   19.674837     -1.00      35.4530
   448    1   Na        16.856496   11.242602   -0.002075      1.00      22.9898
   449    2   Cl        19.671034   14.050997    2.809617     -1.00      35.4530
   450    1   Na        16.856402   14.049967    2.810290      1.00      22.9898
   451    2   Cl        19.674857   11.233432    0.002683     -1.00      35.4530
   452    1   Na        19.661830   11.247767    2.810026      1.00      22.9898
   453    2   Cl        16.863254   14.050463    0.001263     -1.00      35.4530
   454    1   Na        19.665672   14.048978   -0.001393      1.00      22.9898
   455    2   Cl        16.864166   11.236496    2.809946     -1.00      35.4530
   456    1   Na        16.856755   11.242759    5.622191      1.00      22.9898
   457    2   Cl        19.673088   14.050080    8.427201     -1.00      35.4530
   458    1   Na        16.857952   14.049988    8.432000      1.00      22.9898
   459    2   Cl        19.675826   11.233181    5.617106     -1.00      35.4530
   460    1   Na        19.666265   11.243763    8.433425      1.00      22.9898
   461    2   Cl        16.862776   14.050040    5.618480     -1.00      35.4530
   462    1   Na        19.666622   14.049718    5.621922      1.00      22.9898
   463    2   Cl        16.862690   11.237640    8.427554     -1.00      35.4530
   464    1   Na        16.858137   11.241574   11.241574      1.00      22.9898
   465    2   Cl        19.672268   14.050333   14.050333     -1.00      35.4530
   466    1   Na        16.858477   14.049840   14.049840      1.00      22.9898
   467    2   Cl        19.672788   11.237629   11.237629     -1.00      35.4530
   468    1   Na        19.667637   11.241640   14.049877      1.00      22.9898
   469    2   Cl        16.861660   14.050087   11.238705     -1.00      35.4530
   470    1   Na        19.667637   14.049877   11.241640      1.00      22.9898
   471    2   Cl        16.861660   11.238705   14.050087     -1.00      35.4530
   472    1   Na        16.858074   11.241419   16.858310      1.00      22.9898
   473    2   Cl        19.673736   14.051270   19.672930     -1.00      35.4530
   474    1   Na        16.857624   14.049749   19.667867      1.00      22.9898
   475    2   Cl        19.672889   11.237853   16.862576     -1.00      35.4530
   476    1   Na        19.666255   11.243528   19.666666      1.00      22.9898
   477    2   Cl        16.861874   14.050266   16.861550     -1.00      35.4530
   478    1   Na        19.667352   14.049394   16.857914      1.00      22.9898
   479    2   Cl        16.862829   11.237872   19.672412     -1.00      35.4530
   480    1   Na        16.856785   16.857334   -0.001739      1.00      22.9898
   481    2   Cl        19.682538   19.679154    2.806339     -1.00      35.4530
   482    1   Na        16.851576   19.662288    2.809549      1.00      22.9898
   483    2   Cl        19.680620   16.870998    0.001636     -1.00      35.4530
   484    1   Na        19.661244   16.852289    2.811123      1.00      22.9898
   485    2   Cl        16.865408   19.673615    0.002190     -1.00      35.4530
   486    1   Na        19.665516   19.668731   -0.006525      1.00      22.9898
   487    2   Cl        16.864080   16.863095    2.809864     -1.00      35.4530
   488    1   Na        16.856851   16.857418    5.622121      1.00      22.9898
   489    2   Cl        19.678447   19.677103    8.422019     -1.00      35.4530
   490    1   Na        16.856183   19.666800    8.432898      1.00      22.9898
   491    2   Cl        19.676512   16.867336    5.616935     -1.00      35.4530
   492    1   Na        19.666252   16.856335    8.433317      1.00      22.9898
   493    2   Cl        16.867398   19.674837    5.617018     -1.00      35.4530
   494    1   Na        19.662712   19.663049    5.624589      1.00      22.9898
   495    2   Cl        16.862676   16.862347    8.427647     -1.00      35.4530
   496    1   Na        16.858074   16.858310   11.241419      1.00      22.9898
   497    2   Cl        19.673736   19.672930   14.051270     -1.00      35.4530
   498    1   Na        16.857624   19.667867   14.049749      1.00      22.9898
   499    2   Cl        19.672889   16.862576   11.237853     -1.00      35.4530
   500    1   Na        19.667352   16.857914   14.049394      1.00      22.9898
   501    2   Cl        16.862829   19.672412   11.237872     -1.00      35.4530
   502    1   Na        19.666255   19.666666   11.243528      1.00      22.9898
   503    2   Cl        16.861874   16.861550   14.050266     -1.00      35.4530
   504    1   Na        16.857701   16.858308   16.858308      1.00      22.9898
   505    2   Cl        19.679550   19.677687   19.677687     -1.00      35.4530
   506    1   Na        16.855637   19.667265   19.667265      1.00      22.9898
   507    2   Cl        19.673904   16.863196   16.863196     -1.00      35.4530
   508    1   Na        19.665017   16.855765   19.665849      1.00      22.9898
   509    2   Cl        16.863418   19.672330   16.862347     -1.00      35.4530
   510    1   Na        19.665017   19.665849   16.855765      1.00      22.9898
   511    2   Cl        16.863418   16.862347   19.672330     -1.00      35.4530



 PW_GRID| Information for grid number                                          2
 PW_GRID| Cutoff [a.u.]                                                      3.9
 PW_GRID| spherical cutoff:                                                  YES
 PW_GRID| Grid points within cutoff                                        14273
 PW_GRID|   Bounds   1            -20      19                Points:          40
 PW_GRID|   Bounds   2            -20      19                Points:          40
 PW_GRID|   Bounds   3            -20      19                Points:          40
 PW_GRID| Volume element (a.u.^3)   1.198         Volume (a.u.^3)     76662.9501
 PW_GRID| Grid span                                                    HALFSPACE

 RS_GRID| Information for grid number                                          2
 RS_GRID|   Bounds   1            -20      19                Points:          40
 RS_GRID|   Bounds   2            -20      19                Points:          40
 RS_GRID|   Bounds   3            -20      19                Points:          40

 *******************************************************************************
 **                  MAPPING OF BAND REPLICA TO REPLICA ENV                   **
 *******************************************************************************
 ** Replica Env Nr.:      0    working on the following BAND replicas         **
 **                                                                           **
 ** Band Replica   Nr.:      1 Output available on file: NaCl-BAND1.out       **
 ** Band Replica   Nr.:      2 Output available on file: NaCl-BAND2.out       **
 ** Band Replica   Nr.:      3 Output available on file: NaCl-BAND3.out       **
 ** Band Replica   Nr.:      4 Output available on file: NaCl-BAND4.out       **
 ** Band Replica   Nr.:      5 Output available on file: NaCl-BAND5.out       **
 ** Band Replica   Nr.:      6 Output available on file: NaCl-BAND6.out       **
 ** Band Replica   Nr.:      7 Output available on file: NaCl-BAND7.out       **
 ** Band Replica   Nr.:      8 Output available on file: NaCl-BAND8.out       **
 **                                                                           **
 *******************************************************************************


  **** **** ******  **  PROGRAM ENDED AT                 2024-11-06 13:42:06.735
 ***** ** ***  *** **   PROGRAM RAN ON                           BOOK-4GL9QDET17
 **    ****   ******    PROGRAM RAN BY                                     mattw
 ***** **    ** ** **   PROGRAM PROCESS ID                                 23614
  **** **  *******  **  PROGRAM STOPPED IN    /home/mattw/work/NEB/NaCl/cp2k_NEB

  **** **** ******  **  PROGRAM STARTED AT               2024-11-07 11:00:40.361
 ***** ** ***  *** **   PROGRAM STARTED ON                       BOOK-4GL9QDET17
 **    ****   ******    PROGRAM STARTED BY                                 mattw
 ***** **    ** ** **   PROGRAM PROCESS ID                                  1506
  **** **  *******  **  PROGRAM STARTED IN /home/mattw/work/CP2K-ML/NEB/NaCl/cp2
                                           k_NEB

 CP2K| version string:                                          CP2K version 9.1
 CP2K| source code revision number:                                  git:d8d7100
 CP2K| cp2kflags: omp libint fftw3 libxc elpa parallel mpi3 scalapack spglib    
 CP2K| is freely available from                            https://www.cp2k.org/
 CP2K| Program compiled at                          Sun Jan  9 17:14:22 UTC 2022
 CP2K| Program compiled on                                       lcy02-amd64-025
 CP2K| Program compiled for                                Linux-x86_64-gfortran
 CP2K| Data directory path                                       /usr/share/cp2k
 CP2K| Input file name                                              NaCl-r-0.inp

 GLOBAL| Force Environment number                                              1
 GLOBAL| Basis set file name                                           BASIS_SET
 GLOBAL| Potential file name                                           POTENTIAL
 GLOBAL| MM Potential file name                                     MM_POTENTIAL
 GLOBAL| Coordinate file name                                        image_1.xyz
 GLOBAL| Method name                                                        CP2K
 GLOBAL| Project name                                                   NaCl-r-0
 GLOBAL| Run type                                                           BAND
 GLOBAL| FFT library                                                       FFTW3
 GLOBAL| Diagonalization library                                            ELPA
 GLOBAL| Minimum number of eigenvectors for ELPA usage                        16
 GLOBAL| Orthonormality check for eigenvectors                          DISABLED
 GLOBAL| Matrix multiplication library                                 ScaLAPACK
 GLOBAL| All-to-all communication in single precision                          F
 GLOBAL| FFTs using library dependent lengths                                  F
 GLOBAL| Grid backend                                                       AUTO
 GLOBAL| Global print level                                               MEDIUM
 GLOBAL| MPI I/O enabled                                                       T
 GLOBAL| Total number of message passing processes                             1
 GLOBAL| Number of threads for this process                                   16
 GLOBAL| This output is from process                                           0
 GLOBAL| Stack size for threads created by OpenMP (OMP_STACKSIZE)        default
 GLOBAL| CPU model name                      12th Gen Intel(R) Core(TM) i7-1260P

 MEMORY| system memory details [Kb]
 MEMORY|                        rank 0           min           max       average
 MEMORY| MemTotal             12251484      12251484      12251484      12251484
 MEMORY| MemFree               5467688       5467688       5467688       5467688
 MEMORY| Buffers                  9292          9292          9292          9292
 MEMORY| Cached                 926752        926752        926752        926752
 MEMORY| Slab                   254468        254468        254468        254468
 MEMORY| SReclaimable           167816        167816        167816        167816
 MEMORY| MemLikelyFree         6571548       6571548       6571548       6571548


 *** Fundamental physical constants (SI units) ***

 *** Literature: B. J. Mohr and B. N. Taylor,
 ***             CODATA recommended values of the fundamental physical
 ***             constants: 2006, Web Version 5.1
 ***             http://physics.nist.gov/constants

 Speed of light in vacuum [m/s]                             2.99792458000000E+08
 Magnetic constant or permeability of vacuum [N/A**2]       1.25663706143592E-06
 Electric constant or permittivity of vacuum [F/m]          8.85418781762039E-12
 Planck constant (h) [J*s]                                  6.62606896000000E-34
 Planck constant (h-bar) [J*s]                              1.05457162825177E-34
 Elementary charge [C]                                      1.60217648700000E-19
 Electron mass [kg]                                         9.10938215000000E-31
 Electron g factor [ ]                                     -2.00231930436220E+00
 Proton mass [kg]                                           1.67262163700000E-27
 Fine-structure constant                                    7.29735253760000E-03
 Rydberg constant [1/m]                                     1.09737315685270E+07
 Avogadro constant [1/mol]                                  6.02214179000000E+23
 Boltzmann constant [J/K]                                   1.38065040000000E-23
 Atomic mass unit [kg]                                      1.66053878200000E-27
 Bohr radius [m]                                            5.29177208590000E-11

 *** Conversion factors ***

 [u] -> [a.u.]                                              1.82288848426455E+03
 [Angstrom] -> [Bohr] = [a.u.]                              1.88972613288564E+00
 [a.u.] = [Bohr] -> [Angstrom]                              5.29177208590000E-01
 [a.u.] -> [s]                                              2.41888432650478E-17
 [a.u.] -> [fs]                                             2.41888432650478E-02
 [a.u.] -> [J]                                              4.35974393937059E-18
 [a.u.] -> [N]                                              8.23872205491840E-08
 [a.u.] -> [K]                                              3.15774647902944E+05
 [a.u.] -> [kJ/mol]                                         2.62549961709828E+03
 [a.u.] -> [kcal/mol]                                       6.27509468713739E+02
 [a.u.] -> [Pa]                                             2.94210107994716E+13
 [a.u.] -> [bar]                                            2.94210107994716E+08
 [a.u.] -> [atm]                                            2.90362800883016E+08
 [a.u.] -> [eV]                                             2.72113838565563E+01
 [a.u.] -> [Hz]                                             6.57968392072181E+15
 [a.u.] -> [1/cm] (wave numbers)                            2.19474631370540E+05
 [a.u./Bohr**2] -> [1/cm]                                   5.14048714338585E+03
 


                      ************* ******** ***********   
                     ************* **********************  
                     ****     **** ****      ***********   
                     ******** ****  *******     ****       
                     *******  ****   *******   ****        
                     ****     ****       ****  ****        
                     ****     **** **********  ****        
                      ****     **** ********    ****       
                     FRONTIERS IN SIMULATION TECHNOLOGY    
                                                           
                        C.J. Mundy, S. Balasubramanian,    
                     Ken Bagchi, J. Hutter, Ari Seitsonen  
                      IFW Kuo, T. Laino, J. VandeVondele   
                                 Version 1.0               

                                                           


 CELL| Volume [angstrom^3]:                                         11360.276992
 CELL| Vector a [angstrom]:      22.480     0.000     0.000   |a| =    22.480000
 CELL| Vector b [angstrom]:       0.000    22.480     0.000   |b| =    22.480000
 CELL| Vector c [angstrom]:       0.000     0.000    22.480   |c| =    22.480000
 CELL| Angle (b,c), alpha [degree]:                                    90.000000
 CELL| Angle (a,c), beta  [degree]:                                    90.000000
 CELL| Angle (a,b), gamma [degree]:                                    90.000000
 CELL| Numerically orthorhombic:                                             YES

 CELL_REF| Volume [angstrom^3]:                                     11360.276992
 CELL_REF| Vector a [angstrom    22.480     0.000     0.000   |a| =    22.480000
 CELL_REF| Vector b [angstrom     0.000    22.480     0.000   |b| =    22.480000
 CELL_REF| Vector c [angstrom     0.000     0.000    22.480   |c| =    22.480000
 CELL_REF| Angle (b,c), alpha [degree]:                                90.000000
 CELL_REF| Angle (a,c), beta  [degree]:                                90.000000
 CELL_REF| Angle (a,b), gamma [degree]:                                90.000000
 CELL_REF| Numerically orthorhombic:                                         YES

 EWALD| Summation is done by:                                               SPME
 EWALD| Alpha parameter [       ANGSTROM^-1]                              0.5000
 EWALD| Real Space Cutoff [          ANGSTROM]                            6.7478
 EWALD| G-space max. Miller index                         40        40        40
 EWALD| Spline interpolation order                                             6

 CELL_TOP| Volume [angstrom^3]:                                     11360.276992
 CELL_TOP| Vector a [angstrom    22.480     0.000     0.000   |a| =    22.480000
 CELL_TOP| Vector b [angstrom     0.000    22.480     0.000   |b| =    22.480000
 CELL_TOP| Vector c [angstrom     0.000     0.000    22.480   |c| =    22.480000
 CELL_TOP| Angle (b,c), alpha [degree]:                                90.000000
 CELL_TOP| Angle (a,c), beta  [degree]:                                90.000000
 CELL_TOP| Angle (a,b), gamma [degree]:                                90.000000
 CELL_TOP| Numerically orthorhombic:                                         YES
 CHARGE_INFO| Total Charge of the Classical System:                     1.000000

 FORCEFIELD| WARNING: A non Critical ForceField parameter is missing! CP2K GOES!
 FORCEFIELD| Non critical parameters are:Urey-Bradley,Torsions,Impropers, Opbends and 1-4
 FORCEFIELD| All missing parameters will not contribute to the potential energy!
 FORCEFIELD| Activate the print key FF_INFO to have a list of missing parameters


 SPLINE_INFO| Generating 3 splines for NONBONDED14 interactions 
              Due to 2 different atomic kinds
  ...1  ...2  ...3
 SPLINE_INFO| Number of unique splines computed:            1
 SPLINE_INFO| Done

 SPLINE_INFO| Generating 3 splines for NONBONDED interactions 
              Due to 2 different atomic kinds
  ...1  ...2  ...3
 SPLINE_INFO| Number of unique splines computed:            3
 SPLINE_INFO| Done


 MOLECULE KIND INFORMATION


 All atoms are their own molecule, skipping detailed information


 MODULE FIST:  ATOMIC COORDINATES IN ANGSTROM

  Atom  Kind  ATM_TYP       X           Y           Z          q(eff)       Mass

     1    1   Na         0.010153    0.036877    0.036877      1.00      22.9898
     2    1   Na        -0.233958    2.789923    2.789923      1.00      22.9898
     3    2   Cl         2.810000    0.391119    0.391119     -1.00      35.4530
     4    1   Na         2.810000   -0.255684    2.945122      1.00      22.9898
     5    2   Cl         0.022966    2.863466    0.053239     -1.00      35.4530
     6    1   Na         2.810000    2.945122   -0.255684      1.00      22.9898
     7    2   Cl         0.022966    0.053239    2.863466     -1.00      35.4530
     8    1   Na        -0.034810   -0.014200    5.653163      1.00      22.9898
     9    2   Cl         2.810000    2.814989    8.490798     -1.00      35.4530
    10    1   Na        -0.021915    2.809614    8.466288      1.00      22.9898
    11    2   Cl         2.810000    0.081996    5.595930     -1.00      35.4530
    12    1   Na         2.810000   -0.022627    8.471611      1.00      22.9898
    13    2   Cl         0.095075    2.807605    5.527187     -1.00      35.4530
    14    1   Na         2.810000    2.817366    5.881187      1.00      22.9898
    15    2   Cl         0.011392    0.016525    8.413350     -1.00      35.4530
    16    1   Na        -0.003796   -0.002601   11.248758      1.00      22.9898
    17    2   Cl         2.810000    2.811594   14.048505     -1.00      35.4530
    18    1   Na        -0.005924    2.810118   14.048968      1.00      22.9898
    19    2   Cl         2.810000   -0.003744   11.241223     -1.00      35.4530
    20    1   Na         2.810000   -0.005520   14.044414      1.00      22.9898
    21    2   Cl        -0.003763    2.810184   11.240383     -1.00      35.4530
    22    1   Na         2.810000    2.811004   11.265966      1.00      22.9898
    23    2   Cl        -0.000288    0.001045   14.049111     -1.00      35.4530
    24    1   Na        -0.006444   -0.002345   16.846933      1.00      22.9898
    25    2   Cl         2.810000    2.811879   19.613477     -1.00      35.4530
    26    1   Na        -0.029971    2.810369   19.641602      1.00      22.9898
    27    2   Cl         2.810000   -0.003611   16.844660     -1.00      35.4530
    28    1   Na         2.810000    0.009009   19.590419      1.00      22.9898
    29    2   Cl        -0.001623    2.805165   16.864035     -1.00      35.4530
    30    1   Na         2.810000    2.816905   16.824693      1.00      22.9898
    31    2   Cl         0.047141    0.018821   19.718618     -1.00      35.4530
    32    1   Na        -0.034810    5.653163   -0.014200      1.00      22.9898
    33    2   Cl         2.810000    8.490798    2.814989     -1.00      35.4530
    34    1   Na        -0.021915    8.466288    2.809614      1.00      22.9898
    35    2   Cl         2.810000    5.595930    0.081996     -1.00      35.4530
    36    1   Na         2.810000    5.881187    2.817366      1.00      22.9898
    37    2   Cl         0.011392    8.413350    0.016525     -1.00      35.4530
    38    1   Na         2.810000    8.471611   -0.022627      1.00      22.9898
    39    2   Cl         0.095075    5.527187    2.807605     -1.00      35.4530
    40    1   Na        -0.016065    5.631289    5.631289      1.00      22.9898
    41    2   Cl         2.810000    8.413331    8.413331     -1.00      35.4530
    42    1   Na        -0.007344    8.438306    8.438306      1.00      22.9898
    43    2   Cl         2.810000    5.532584    5.532584     -1.00      35.4530
    44    1   Na         2.810000    5.643283    8.466559      1.00      22.9898
    45    2   Cl         0.016767    8.407782    5.603300     -1.00      35.4530
    46    1   Na         2.810000    8.466559    5.643283      1.00      22.9898
    47    2   Cl         0.016767    5.603300    8.407782     -1.00      35.4530
    48    1   Na        -0.002826    5.622706   11.249062      1.00      22.9898
    49    2   Cl         2.810000    8.429699   14.050219     -1.00      35.4530
    50    1   Na        -0.002018    8.432906   14.049940      1.00      22.9898
    51    2   Cl         2.810000    5.624584   11.240445     -1.00      35.4530
    52    1   Na         2.810000    5.627048   14.048636      1.00      22.9898
    53    2   Cl         0.003001    8.424509   11.233100     -1.00      35.4530
    54    1   Na         2.810000    8.438095   11.248003      1.00      22.9898
    55    2   Cl         0.001629    5.617902   14.051098     -1.00      35.4530
    56    1   Na        -0.004342    5.622014   16.851009      1.00      22.9898
    57    2   Cl         2.810000    8.418417   19.681360     -1.00      35.4530
    58    1   Na        -0.006844    8.439424   19.662245      1.00      22.9898
    59    2   Cl         2.810000    5.623371   16.858439     -1.00      35.4530
    60    1   Na         2.810000    5.660286   19.616325      1.00      22.9898
    61    2   Cl         0.003192    8.424069   16.867057     -1.00      35.4530
    62    1   Na         2.810000    8.439397   16.850418      1.00      22.9898
    63    2   Cl         0.024030    5.605942   19.689256     -1.00      35.4530
    64    1   Na        -0.003796   11.248758   -0.002601      1.00      22.9898
    65    2   Cl         2.810000   14.048505    2.811594     -1.00      35.4530
    66    1   Na        -0.005924   14.048968    2.810118      1.00      22.9898
    67    2   Cl         2.810000   11.241223   -0.003744     -1.00      35.4530
    68    1   Na         2.810000   11.265966    2.811004      1.00      22.9898
    69    2   Cl        -0.000288   14.049111    0.001045     -1.00      35.4530
    70    1   Na         2.810000   14.044414   -0.005520      1.00      22.9898
    71    2   Cl        -0.003763   11.240383    2.810184     -1.00      35.4530
    72    1   Na        -0.002826   11.249062    5.622706      1.00      22.9898
    73    2   Cl         2.810000   14.050219    8.429699     -1.00      35.4530
    74    1   Na        -0.002018   14.049940    8.432906      1.00      22.9898
    75    2   Cl         2.810000   11.240445    5.624584     -1.00      35.4530
    76    1   Na         2.810000   11.248003    8.438095      1.00      22.9898
    77    2   Cl         0.001629   14.051098    5.617902     -1.00      35.4530
    78    1   Na         2.810000   14.048636    5.627048      1.00      22.9898
    79    2   Cl         0.003001   11.233100    8.424509     -1.00      35.4530
    80    1   Na        -0.002442   11.242857   11.242857      1.00      22.9898
    81    2   Cl         2.810000   14.050930   14.050930     -1.00      35.4530
    82    1   Na        -0.001942   14.049498   14.049498      1.00      22.9898
    83    2   Cl         2.810000   11.236330   11.236330     -1.00      35.4530
    84    1   Na         2.810000   11.242970   14.049611      1.00      22.9898
    85    2   Cl         0.001692   14.050202   11.237802     -1.00      35.4530
    86    1   Na         2.810000   14.049611   11.242970      1.00      22.9898
    87    2   Cl         0.001692   11.237802   14.050202     -1.00      35.4530
    88    1   Na        -0.002352   11.242618   16.857053      1.00      22.9898
    89    2   Cl         2.810000   14.049296   19.668270     -1.00      35.4530
    90    1   Na        -0.001741   14.048670   19.667183      1.00      22.9898
    91    2   Cl         2.810000   11.236647   16.862882     -1.00      35.4530
    92    1   Na         2.810000   11.247564   19.661264      1.00      22.9898
    93    2   Cl         0.002003   14.051350   16.862938     -1.00      35.4530
    94    1   Na         2.810000   14.048832   16.855981      1.00      22.9898
    95    2   Cl         0.002708   11.233460   19.675124     -1.00      35.4530
    96    1   Na        -0.006444   16.846933   -0.002345      1.00      22.9898
    97    2   Cl         2.810000   19.613477    2.811879     -1.00      35.4530
    98    1   Na        -0.029971   19.641602    2.810369      1.00      22.9898
    99    2   Cl         2.810000   16.844660   -0.003611     -1.00      35.4530
   100    1   Na         2.810000   16.824693    2.816905      1.00      22.9898
   101    2   Cl         0.047141   19.718618    0.018821     -1.00      35.4530
   102    1   Na         2.810000   19.590419    0.009009      1.00      22.9898
   103    2   Cl        -0.001623   16.864035    2.805165     -1.00      35.4530
   104    1   Na        -0.004342   16.851009    5.622014      1.00      22.9898
   105    2   Cl         2.810000   19.681360    8.418417     -1.00      35.4530
   106    1   Na        -0.006844   19.662245    8.439424      1.00      22.9898
   107    2   Cl         2.810000   16.858439    5.623371     -1.00      35.4530
   108    1   Na         2.810000   16.850418    8.439397      1.00      22.9898
   109    2   Cl         0.024030   19.689256    5.605942     -1.00      35.4530
   110    1   Na         2.810000   19.616325    5.660286      1.00      22.9898
   111    2   Cl         0.003192   16.867057    8.424069     -1.00      35.4530
   112    1   Na        -0.002352   16.857053   11.242618      1.00      22.9898
   113    2   Cl         2.810000   19.668270   14.049296     -1.00      35.4530
   114    1   Na        -0.001741   19.667183   14.048670      1.00      22.9898
   115    2   Cl         2.810000   16.862882   11.236647     -1.00      35.4530
   116    1   Na         2.810000   16.855981   14.048832      1.00      22.9898
   117    2   Cl         0.002708   19.675124   11.233460     -1.00      35.4530
   118    1   Na         2.810000   19.661264   11.247564      1.00      22.9898
   119    2   Cl         0.002003   16.862938   14.051350     -1.00      35.4530
   120    1   Na        -0.004118   16.855997   16.855997      1.00      22.9898
   121    2   Cl         2.810000   19.725370   19.725370     -1.00      35.4530
   122    1   Na        -0.008122   19.668521   19.668521      1.00      22.9898
   123    2   Cl         2.810000   16.870125   16.870125     -1.00      35.4530
   124    1   Na         2.810000   16.851214   19.662077      1.00      22.9898
   125    2   Cl         0.007221   19.677801   16.871289     -1.00      35.4530
   126    1   Na         2.810000   19.662077   16.851214      1.00      22.9898
   127    2   Cl         0.007221   16.871289   19.677801     -1.00      35.4530
   128    1   Na         5.609847    0.036877    0.036877      1.00      22.9898
   129    2   Cl         8.477704    2.810351    2.810351     -1.00      35.4530
   130    1   Na         5.853958    2.789923    2.789923      1.00      22.9898
   131    2   Cl         8.412907    0.016688    0.016688     -1.00      35.4530
   132    1   Na         8.473666   -0.024203    2.816274      1.00      22.9898
   133    2   Cl         5.597034    2.863466    0.053239     -1.00      35.4530
   134    1   Na         8.473666    2.816274   -0.024203      1.00      22.9898
   135    2   Cl         5.597034    0.053239    2.863466     -1.00      35.4530
   136    1   Na         5.654810   -0.014200    5.653163      1.00      22.9898
   137    2   Cl         8.412199    2.810383    8.412779     -1.00      35.4530
   138    1   Na         5.641915    2.809614    8.466288      1.00      22.9898
   139    2   Cl         8.418586    0.015489    5.614128     -1.00      35.4530
   140    1   Na         8.440890   -0.006742    8.439691      1.00      22.9898
   141    2   Cl         5.524925    2.807605    5.527187     -1.00      35.4530
   142    1   Na         8.462034    2.809756    5.636768      1.00      22.9898
   143    2   Cl         5.608608    0.016525    8.413350     -1.00      35.4530
   144    1   Na         5.623796   -0.002601   11.248758      1.00      22.9898
   145    2   Cl         8.428966    2.809617   14.050997     -1.00      35.4530
   146    1   Na         5.625924    2.810118   14.048968      1.00      22.9898
   147    2   Cl         8.425143    0.002683   11.233432     -1.00      35.4530
   148    1   Na         8.434328   -0.001393   14.048978      1.00      22.9898
   149    2   Cl         5.623763    2.810184   11.240383     -1.00      35.4530
   150    1   Na         8.438170    2.810026   11.247767      1.00      22.9898
   151    2   Cl         5.620288    0.001045   14.049111     -1.00      35.4530
   152    1   Na         5.626444   -0.002345   16.846933      1.00      22.9898
   153    2   Cl         8.417462    2.806339   19.679154     -1.00      35.4530
   154    1   Na         5.649971    2.810369   19.641602      1.00      22.9898
   155    2   Cl         8.419380    0.001636   16.870998     -1.00      35.4530
   156    1   Na         8.434484   -0.006525   19.668731      1.00      22.9898
   157    2   Cl         5.621623    2.805165   16.864035     -1.00      35.4530
   158    1   Na         8.438756    2.811123   16.852289      1.00      22.9898
   159    2   Cl         5.572859    0.018821   19.718618     -1.00      35.4530
   160    1   Na         5.654810    5.653163   -0.014200      1.00      22.9898
   161    2   Cl         8.412199    8.412779    2.810383     -1.00      35.4530
   162    1   Na         5.641915    8.466288    2.809614      1.00      22.9898
   163    2   Cl         8.418586    5.614128    0.015489     -1.00      35.4530
   164    1   Na         8.462034    5.636768    2.809756      1.00      22.9898
   165    2   Cl         5.608608    8.413350    0.016525     -1.00      35.4530
   166    1   Na         8.440890    8.439691   -0.006742      1.00      22.9898
   167    2   Cl         5.524925    5.527187    2.807605     -1.00      35.4530
   168    1   Na         5.636065    5.631289    5.631289      1.00      22.9898
   169    2   Cl         8.422090    8.422586    8.422586     -1.00      35.4530
   170    1   Na         5.627344    8.438306    8.438306      1.00      22.9898
   171    2   Cl         8.408579    5.604611    5.604611     -1.00      35.4530
   172    1   Na         8.438987    5.626763    8.438195      1.00      22.9898
   173    2   Cl         5.603233    8.407782    5.603300     -1.00      35.4530
[...]
   393    2   Cl        19.687801    2.810383    8.412779     -1.00      35.4530
   394    1   Na        16.852233    2.809927    8.436958      1.00      22.9898
   395    2   Cl        19.681414    0.015489    5.614128     -1.00      35.4530
   396    1   Na        19.659110   -0.006742    8.439691      1.00      22.9898
   397    2   Cl        16.860387    2.810398    5.623200     -1.00      35.4530
   398    1   Na        19.637966    2.809756    5.636768      1.00      22.9898
   399    2   Cl        16.866406    0.002582    8.425716     -1.00      35.4530
   400    1   Na        16.856496   -0.002075   11.242602      1.00      22.9898
   401    2   Cl        19.671034    2.809617   14.050997     -1.00      35.4530
   402    1   Na        16.856402    2.810290   14.049967      1.00      22.9898
   403    2   Cl        19.674857    0.002683   11.233432     -1.00      35.4530
   404    1   Na        19.665672   -0.001393   14.048978      1.00      22.9898
   405    2   Cl        16.864166    2.809946   11.236496     -1.00      35.4530
   406    1   Na        19.661830    2.810026   11.247767      1.00      22.9898
   407    2   Cl        16.863254    0.001263   14.050463     -1.00      35.4530
   408    1   Na        16.856785   -0.001739   16.857334      1.00      22.9898
   409    2   Cl        19.682538    2.806339   19.679154     -1.00      35.4530
   410    1   Na        16.851576    2.809549   19.662288      1.00      22.9898
   411    2   Cl        19.680620    0.001636   16.870998     -1.00      35.4530
   412    1   Na        19.665516   -0.006525   19.668731      1.00      22.9898
   413    2   Cl        16.864080    2.809864   16.863095     -1.00      35.4530
   414    1   Na        19.661244    2.811123   16.852289      1.00      22.9898
   415    2   Cl        16.865408    0.002190   19.673615     -1.00      35.4530
   416    1   Na        16.850040    5.623803   -0.002330      1.00      22.9898
   417    2   Cl        19.687801    8.412779    2.810383     -1.00      35.4530
   418    1   Na        16.852233    8.436958    2.809927      1.00      22.9898
   419    2   Cl        19.681414    5.614128    0.015489     -1.00      35.4530
   420    1   Na        19.637966    5.636768    2.809756      1.00      22.9898
   421    2   Cl        16.866406    8.425716    0.002582     -1.00      35.4530
   422    1   Na        19.659110    8.439691   -0.006742      1.00      22.9898
   423    2   Cl        16.860387    5.623200    2.810398     -1.00      35.4530
   424    1   Na        16.850871    5.622398    5.622398      1.00      22.9898
   425    2   Cl        19.677910    8.422586    8.422586     -1.00      35.4530
   426    1   Na        16.855925    8.433253    8.433253      1.00      22.9898
   427    2   Cl        19.691421    5.604611    5.604611     -1.00      35.4530
   428    1   Na        19.661013    5.626763    8.438195      1.00      22.9898
   429    2   Cl        16.867085    8.424983    5.617400     -1.00      35.4530
   430    1   Na        19.661013    8.438195    5.626763      1.00      22.9898
   431    2   Cl        16.867085    5.617400    8.424983     -1.00      35.4530
   432    1   Na        16.856755    5.622191   11.242759      1.00      22.9898
   433    2   Cl        19.673088    8.427201   14.050080     -1.00      35.4530
   434    1   Na        16.857952    8.432000   14.049988      1.00      22.9898
   435    2   Cl        19.675826    5.617106   11.233181     -1.00      35.4530
   436    1   Na        19.666622    5.621922   14.049718      1.00      22.9898
   437    2   Cl        16.862690    8.427554   11.237640     -1.00      35.4530
   438    1   Na        19.666265    8.433425   11.243763      1.00      22.9898
   439    2   Cl        16.862776    5.618480   14.050040     -1.00      35.4530
   440    1   Na        16.856851    5.622121   16.857418      1.00      22.9898
   441    2   Cl        19.678447    8.422019   19.677103     -1.00      35.4530
   442    1   Na        16.856183    8.432898   19.666800      1.00      22.9898
   443    2   Cl        19.676512    5.616935   16.867336     -1.00      35.4530
   444    1   Na        19.662712    5.624589   19.663049      1.00      22.9898
   445    2   Cl        16.862676    8.427647   16.862347     -1.00      35.4530
   446    1   Na        19.666252    8.433317   16.856335      1.00      22.9898
   447    2   Cl        16.867398    5.617018   19.674837     -1.00      35.4530
   448    1   Na        16.856496   11.242602   -0.002075      1.00      22.9898
   449    2   Cl        19.671034   14.050997    2.809617     -1.00      35.4530
   450    1   Na        16.856402   14.049967    2.810290      1.00      22.9898
   451    2   Cl        19.674857   11.233432    0.002683     -1.00      35.4530
   452    1   Na        19.661830   11.247767    2.810026      1.00      22.9898
   453    2   Cl        16.863254   14.050463    0.001263     -1.00      35.4530
   454    1   Na        19.665672   14.048978   -0.001393      1.00      22.9898
   455    2   Cl        16.864166   11.236496    2.809946     -1.00      35.4530
   456    1   Na        16.856755   11.242759    5.622191      1.00      22.9898
   457    2   Cl        19.673088   14.050080    8.427201     -1.00      35.4530
   458    1   Na        16.857952   14.049988    8.432000      1.00      22.9898
   459    2   Cl        19.675826   11.233181    5.617106     -1.00      35.4530
   460    1   Na        19.666265   11.243763    8.433425      1.00      22.9898
   461    2   Cl        16.862776   14.050040    5.618480     -1.00      35.4530
   462    1   Na        19.666622   14.049718    5.621922      1.00      22.9898
   463    2   Cl        16.862690   11.237640    8.427554     -1.00      35.4530
   464    1   Na        16.858137   11.241574   11.241574      1.00      22.9898
   465    2   Cl        19.672268   14.050333   14.050333     -1.00      35.4530
   466    1   Na        16.858477   14.049840   14.049840      1.00      22.9898
   467    2   Cl        19.672788   11.237629   11.237629     -1.00      35.4530
   468    1   Na        19.667637   11.241640   14.049877      1.00      22.9898
   469    2   Cl        16.861660   14.050087   11.238705     -1.00      35.4530
   470    1   Na        19.667637   14.049877   11.241640      1.00      22.9898
   471    2   Cl        16.861660   11.238705   14.050087     -1.00      35.4530
   472    1   Na        16.858074   11.241419   16.858310      1.00      22.9898
   473    2   Cl        19.673736   14.051270   19.672930     -1.00      35.4530
   474    1   Na        16.857624   14.049749   19.667867      1.00      22.9898
   475    2   Cl        19.672889   11.237853   16.862576     -1.00      35.4530
   476    1   Na        19.666255   11.243528   19.666666      1.00      22.9898
   477    2   Cl        16.861874   14.050266   16.861550     -1.00      35.4530
   478    1   Na        19.667352   14.049394   16.857914      1.00      22.9898
   479    2   Cl        16.862829   11.237872   19.672412     -1.00      35.4530
   480    1   Na        16.856785   16.857334   -0.001739      1.00      22.9898
   481    2   Cl        19.682538   19.679154    2.806339     -1.00      35.4530
   482    1   Na        16.851576   19.662288    2.809549      1.00      22.9898
   483    2   Cl        19.680620   16.870998    0.001636     -1.00      35.4530
   484    1   Na        19.661244   16.852289    2.811123      1.00      22.9898
   485    2   Cl        16.865408   19.673615    0.002190     -1.00      35.4530
   486    1   Na        19.665516   19.668731   -0.006525      1.00      22.9898
   487    2   Cl        16.864080   16.863095    2.809864     -1.00      35.4530
   488    1   Na        16.856851   16.857418    5.622121      1.00      22.9898
   489    2   Cl        19.678447   19.677103    8.422019     -1.00      35.4530
   490    1   Na        16.856183   19.666800    8.432898      1.00      22.9898
   491    2   Cl        19.676512   16.867336    5.616935     -1.00      35.4530
   492    1   Na        19.666252   16.856335    8.433317      1.00      22.9898
   493    2   Cl        16.867398   19.674837    5.617018     -1.00      35.4530
   494    1   Na        19.662712   19.663049    5.624589      1.00      22.9898
   495    2   Cl        16.862676   16.862347    8.427647     -1.00      35.4530
   496    1   Na        16.858074   16.858310   11.241419      1.00      22.9898
   497    2   Cl        19.673736   19.672930   14.051270     -1.00      35.4530
   498    1   Na        16.857624   19.667867   14.049749      1.00      22.9898
   499    2   Cl        19.672889   16.862576   11.237853     -1.00      35.4530
   500    1   Na        19.667352   16.857914   14.049394      1.00      22.9898
   501    2   Cl        16.862829   19.672412   11.237872     -1.00      35.4530
   502    1   Na        19.666255   19.666666   11.243528      1.00      22.9898
   503    2   Cl        16.861874   16.861550   14.050266     -1.00      35.4530
   504    1   Na        16.857701   16.858308   16.858308      1.00      22.9898
   505    2   Cl        19.679550   19.677687   19.677687     -1.00      35.4530
   506    1   Na        16.855637   19.667265   19.667265      1.00      22.9898
   507    2   Cl        19.673904   16.863196   16.863196     -1.00      35.4530
   508    1   Na        19.665017   16.855765   19.665849      1.00      22.9898
   509    2   Cl        16.863418   19.672330   16.862347     -1.00      35.4530
   510    1   Na        19.665017   19.665849   16.855765      1.00      22.9898
   511    2   Cl        16.863418   16.862347   19.672330     -1.00      35.4530



 PW_GRID| Information for grid number                                          2
 PW_GRID| Cutoff [a.u.]                                                      3.9
 PW_GRID| spherical cutoff:                                                  YES
 PW_GRID| Grid points within cutoff                                        14273
 PW_GRID|   Bounds   1            -20      19                Points:          40
 PW_GRID|   Bounds   2            -20      19                Points:          40
 PW_GRID|   Bounds   3            -20      19                Points:          40
 PW_GRID| Volume element (a.u.^3)   1.198         Volume (a.u.^3)     76662.9501
 PW_GRID| Grid span                                                    HALFSPACE

 RS_GRID| Information for grid number                                          2
 RS_GRID|   Bounds   1            -20      19                Points:          40
 RS_GRID|   Bounds   2            -20      19                Points:          40
 RS_GRID|   Bounds   3            -20      19                Points:          40

 *******************************************************************************
 **                  MAPPING OF BAND REPLICA TO REPLICA ENV                   **
 *******************************************************************************
 ** Replica Env Nr.:      0    working on the following BAND replicas         **
 **                                                                           **
 ** Band Replica   Nr.:      1 Output available on file: NaCl-BAND1.out       **
 ** Band Replica   Nr.:      2 Output available on file: NaCl-BAND2.out       **
 ** Band Replica   Nr.:      3 Output available on file: NaCl-BAND3.out       **
 ** Band Replica   Nr.:      4 Output available on file: NaCl-BAND4.out       **
 ** Band Replica   Nr.:      5 Output available on file: NaCl-BAND5.out       **
 ** Band Replica   Nr.:      6 Output available on file: NaCl-BAND6.out       **
 ** Band Replica   Nr.:      7 Output available on file: NaCl-BAND7.out       **
 ** Band Replica   Nr.:      8 Output available on file: NaCl-BAND8.out       **
 **                                                                           **
 *******************************************************************************


  **** **** ******  **  PROGRAM ENDED AT                 2024-11-07 11:19:23.404
 ***** ** ***  *** **   PROGRAM RAN ON                           BOOK-4GL9QDET17
 **    ****   ******    PROGRAM RAN BY                                     mattw
 ***** **    ** ** **   PROGRAM PROCESS ID                                  2173
  **** **  *******  **  PROGRAM STOPPED IN /home/mattw/work/CP2K-ML/NEB/NaCl/cp2
                                           k_NEB

  **** **** ******  **  PROGRAM STARTED AT               2024-11-07 11:21:54.987
 ***** ** ***  *** **   PROGRAM STARTED ON                       BOOK-4GL9QDET17
 **    ****   ******    PROGRAM STARTED BY                                 mattw
 ***** **    ** ** **   PROGRAM PROCESS ID                                  2330
  **** **  *******  **  PROGRAM STARTED IN /home/mattw/work/CP2K-ML/NEB/NaCl/cp2
                                           k_NEB

 CP2K| version string:                                          CP2K version 9.1
 CP2K| source code revision number:                                  git:d8d7100
 CP2K| cp2kflags: omp libint fftw3 libxc elpa parallel mpi3 scalapack spglib    
 CP2K| is freely available from                            https://www.cp2k.org/
 CP2K| Program compiled at                          Sun Jan  9 17:14:22 UTC 2022
 CP2K| Program compiled on                                       lcy02-amd64-025
 CP2K| Program compiled for                                Linux-x86_64-gfortran
 CP2K| Data directory path                                       /usr/share/cp2k
 CP2K| Input file name                                              NaCl-r-0.inp

 GLOBAL| Force Environment number                                              1
 GLOBAL| Basis set file name                                           BASIS_SET
 GLOBAL| Potential file name                                           POTENTIAL
 GLOBAL| MM Potential file name                                     MM_POTENTIAL
 GLOBAL| Coordinate file name                                        image_1.xyz
 GLOBAL| Method name                                                        CP2K
 GLOBAL| Project name                                                   NaCl-r-0
 GLOBAL| Run type                                                           BAND
 GLOBAL| FFT library                                                       FFTW3
 GLOBAL| Diagonalization library                                            ELPA
 GLOBAL| Minimum number of eigenvectors for ELPA usage                        16
 GLOBAL| Orthonormality check for eigenvectors                          DISABLED
 GLOBAL| Matrix multiplication library                                 ScaLAPACK
 GLOBAL| All-to-all communication in single precision                          F
 GLOBAL| FFTs using library dependent lengths                                  F
 GLOBAL| Grid backend                                                       AUTO
 GLOBAL| Global print level                                                  LOW
 GLOBAL| MPI I/O enabled                                                       T
 GLOBAL| Total number of message passing processes                             1
 GLOBAL| Number of threads for this process                                   16
 GLOBAL| This output is from process                                           0
 GLOBAL| Stack size for threads created by OpenMP (OMP_STACKSIZE)        default
 GLOBAL| CPU model name                      12th Gen Intel(R) Core(TM) i7-1260P

 MEMORY| system memory details [Kb]
 MEMORY|                        rank 0           min           max       average
 MEMORY| MemTotal             12251484      12251484      12251484      12251484
 MEMORY| MemFree               5851692       5851692       5851692       5851692
 MEMORY| Buffers                  3180          3180          3180          3180
 MEMORY| Cached                 560756        560756        560756        560756
 MEMORY| Slab                   251632        251632        251632        251632
 MEMORY| SReclaimable           164860        164860        164860        164860
 MEMORY| MemLikelyFree         6580488       6580488       6580488       6580488



                      ************* ******** ***********   
                     ************* **********************  
                     ****     **** ****      ***********   
                     ******** ****  *******     ****       
                     *******  ****   *******   ****        
                     ****     ****       ****  ****        
                     ****     **** **********  ****        
                      ****     **** ********    ****       
                     FRONTIERS IN SIMULATION TECHNOLOGY    
                                                           
                        C.J. Mundy, S. Balasubramanian,    
                     Ken Bagchi, J. Hutter, Ari Seitsonen  
                      IFW Kuo, T. Laino, J. VandeVondele   
                                 Version 1.0               

                                                           


 EWALD| Summation is done by:                                               SPME
 EWALD| Alpha parameter [       ANGSTROM^-1]                              0.5000
 EWALD| Real Space Cutoff [          ANGSTROM]                            6.7478
 EWALD| G-space max. Miller index                         40        40        40
 EWALD| Spline interpolation order                                             6
 CHARGE_INFO| Total Charge of the Classical System:                     1.000000

 FORCEFIELD| WARNING: A non Critical ForceField parameter is missing! CP2K GOES!
 FORCEFIELD| Non critical parameters are:Urey-Bradley,Torsions,Impropers, Opbends and 1-4
 FORCEFIELD| All missing parameters will not contribute to the potential energy!
 FORCEFIELD| Activate the print key FF_INFO to have a list of missing parameters


 SPLINE_INFO| Generating 3 splines for NONBONDED14 interactions 
              Due to 2 different atomic kinds
  ...1  ...2  ...3
 SPLINE_INFO| Number of unique splines computed:            1
 SPLINE_INFO| Done

 SPLINE_INFO| Generating 3 splines for NONBONDED interactions 
              Due to 2 different atomic kinds
  ...1  ...2  ...3
 SPLINE_INFO| Number of unique splines computed:            3
 SPLINE_INFO| Done

 *******************************************************************************
 **                  MAPPING OF BAND REPLICA TO REPLICA ENV                   **
 *******************************************************************************
 ** Replica Env Nr.:      0    working on the following BAND replicas         **
 **                                                                           **
 ** Band Replica   Nr.:      1 Output available on file: NaCl-BAND1.out       **
 ** Band Replica   Nr.:      2 Output available on file: NaCl-BAND2.out       **
 ** Band Replica   Nr.:      3 Output available on file: NaCl-BAND3.out       **
 ** Band Replica   Nr.:      4 Output available on file: NaCl-BAND4.out       **
 ** Band Replica   Nr.:      5 Output available on file: NaCl-BAND5.out       **
 ** Band Replica   Nr.:      6 Output available on file: NaCl-BAND6.out       **
 ** Band Replica   Nr.:      7 Output available on file: NaCl-BAND7.out       **
 ** Band Replica   Nr.:      8 Output available on file: NaCl-BAND8.out       **
 **                                                                           **
 *******************************************************************************


  **** **** ******  **  PROGRAM ENDED AT                 2024-11-07 11:21:56.016
 ***** ** ***  *** **   PROGRAM RAN ON                           BOOK-4GL9QDET17
 **    ****   ******    PROGRAM RAN BY                                     mattw
 ***** **    ** ** **   PROGRAM PROCESS ID                                  2330
  **** **  *******  **  PROGRAM STOPPED IN /home/mattw/work/CP2K-ML/NEB/NaCl/cp2
                                           k_NEB
