         0        -75.558433178        -75.549576947        -75.540700590        -75.537017105        -75.540680237        -75.549534903        -75.558366570        -75.562171286          1.031077875          1.011308576          0.965350863          0.965350868          1.011308540          1.031077350          1.036119329
         1        -75.558489827        -75.549598943        -75.540732216        -75.537034025        -75.540712102        -75.549557480        -75.558376218        -75.562186794          1.037217512          1.009997356          0.967586692          0.967587040          1.009998280          1.030407765          1.035739057
         2        -75.558545662        -75.549623999        -75.540761809        -75.537049911        -75.540741931        -75.549579846        -75.558385721        -75.562200239          1.042961440          1.009239964          0.969652817          0.969653457          1.008901274          1.029727676          1.035366698
         3        -75.558600703        -75.549651699        -75.540789704        -75.537064884        -75.540769937        -75.549601932        -75.558395103        -75.562211992          1.048355175          1.008953044          0.971584767          0.971568632          1.007987092          1.029048417          1.034997973
         4        -75.558654973        -75.549681680        -75.540816182        -75.537079048        -75.540796305        -75.549623686        -75.558404379        -75.562222352          1.053438093          1.009065547          0.973411361          0.973349555          1.007229846          1.028378564          1.034629980
         5        -75.558708489        -75.549713632        -75.540841484        -75.537092491        -75.540821195        -75.549645070        -75.558413559        -75.562231562          1.058244321          1.009516864          0.975155908          0.975011729          1.006607522          1.027724487          1.034260879
         6        -75.558761268        -75.549747285        -75.540865809        -75.537105287        -75.540844749        -75.549666053        -75.558422647        -75.562239822          1.062803451          1.010255263          0.976837192          0.976569225          1.006101402          1.027090808          1.033889640
         7        -75.560306647        -75.551248924        -75.541446344        -75.537386963        -75.541341682        -75.550286650        -75.558693460        -75.562376206          1.166980151          1.102498596          1.018235368          1.007267007          1.015216161          1.008271087          1.021723867
         8        -75.560337964        -75.551282978        -75.541482052        -75.537391461        -75.541349051        -75.550287666        -75.558701211        -75.562378317          1.169314161          1.101723869          1.021983436          1.008287543          1.014607510          1.009421090          1.021151705
         9        -75.560368866        -75.551318380        -75.541516071        -75.537395891        -75.541355748        -75.550289443        -75.558708321        -75.562380369          1.171466388          1.101323552          1.025369819          1.009361629          1.014166046          1.010400698          1.020663887
        10        -75.560399356        -75.551354873        -75.541548669        -75.537400259        -75.541361815        -75.550291823        -75.558714879        -75.562382365          1.173463367          1.101233999          1.028451957          1.010474330          1.013869368          1.011238833          1.020248096
        11        -75.560429442        -75.551392242        -75.541580071        -75.537404569        -75.541367296        -75.550294675        -75.558720960        -75.562384310          1.175327351          1.101401987          1.031277638          1.011613930          1.013698003          1.011959891          1.019894008
        12        -75.560459127        -75.551430307        -75.541610465        -75.537408827        -75.541372230        -75.550297884        -75.558726627        -75.562386208          1.177077006          1.101782995          1.033886643          1.012771277          1.013635048          1.012584434          1.019592974
        13        -75.560488417        -75.551468916        -75.541640010        -75.537413035        -75.541376651        -75.550301357        -75.558731935        -75.562388061          1.178727994          1.102339775          1.036312106          1.013939263          1.013665848          1.013129764          1.019337755
        14        -75.561933288        -75.554123002        -75.543335752        -75.537667780        -75.541472422        -75.550586805        -75.558928980        -75.562468111          1.261127442          1.202615690          1.137444460          1.098077787          1.046718472          1.022553833          1.021267256
        15        -75.561941378        -75.554149708        -75.543364278        -75.537671407        -75.541455701        -75.550577213        -75.558929810        -75.562468755          1.260872845          1.202372303          1.138815679          1.097509676          1.048132575          1.023774815          1.021437656
        16        -75.561949338        -75.554176345        -75.543392133        -75.537675099        -75.541439691        -75.550567495        -75.558930274        -75.562469345          1.260602633          1.202206811          1.140010290          1.097136776          1.049440540          1.024952117          1.021657698
        17        -75.561957172        -75.554202879        -75.543419422        -75.537678851        -75.541424283        -75.550557683        -75.558930404        -75.562469889          1.260321270          1.202102261          1.141059381          1.096925499          1.050660062          1.026087436          1.021922971
        18        -75.561964883        -75.554229281        -75.543446234        -75.537682657        -75.541409389        -75.550547802        -75.558930231        -75.562470395          1.260032208          1.202045086          1.141988440          1.096848045          1.051805557          1.027182932          1.022229361
        19        -75.561972474        -75.554255531        -75.543472637        -75.537686513        -75.541394934        -75.550537871        -75.558929782        -75.562470869          1.259738329          1.202024452          1.142818367          1.096881377          1.052888790          1.028241035          1.022573056
        20        -75.561979948        -75.554281615        -75.543498689        -75.537690416        -75.541380856        -75.550527905        -75.558929084        -75.562471314          1.259441402          1.202031736          1.143566307          1.097006389          1.053919377          1.029264313          1.022950544
        21        -75.562354468        -75.556033461        -75.545259880        -75.538084055        -75.540542797        -75.549787057        -75.558783780        -75.562485292          1.240327113          1.216277226          1.167544786          1.140604614          1.108410201          1.091488891          1.062908994
        22        -75.562356411        -75.556044126        -75.545282566        -75.538088866        -75.540534055        -75.549780465        -75.558775167        -75.562486122          1.240341348          1.215109646          1.168642862          1.140331893          1.109204411          1.090974443          1.064346516
        23        -75.562358303        -75.556055182        -75.545304194        -75.538093751        -75.540525583        -75.549773201        -75.558767163        -75.562486829          1.240292884          1.214110046          1.169561967          1.140181457          1.109881699          1.090621530          1.065696465
        24        -75.562360149        -75.556066549        -75.545324925        -75.538098691        -75.540517316        -75.549765403        -75.558759690        -75.562487435          1.240192547          1.213250280          1.170334091          1.140126275          1.110467551          1.090404173          1.066970011
        25        -75.562361952        -75.556078156        -75.545344892        -75.538103671        -75.540509204        -75.549757183        -75.558752684        -75.562487956          1.240049343          1.212507030          1.170985338          1.140144890          1.110982339          1.090300740          1.068176660
        26        -75.562363715        -75.556089950        -75.545364206        -75.538108679        -75.540501207        -75.549748635        -75.558746088        -75.562488408          1.239870770          1.211860964          1.171537022          1.140220314          1.111442309          1.090293189          1.069324521
        27        -75.562365441        -75.556101881        -75.545382959        -75.538113705        -75.540493297        -75.549739833        -75.558739855        -75.562488801          1.239663070          1.211296040          1.172006563          1.140339133          1.111860379          1.090366442          1.070420532
        28        -75.562410804        -75.556498369        -75.545896359        -75.538283773        -75.540259945        -75.549417823        -75.558590989        -75.562492446          1.229086823          1.205556862          1.174514061          1.151485109          1.118111105          1.104584324          1.098129858
        29        -75.562411858        -75.556508076        -75.545910905        -75.538287897        -75.540250710        -75.549412330        -75.558589408        -75.562492677          1.228852848          1.205225879          1.174945373          1.150967318          1.119131657          1.105019661          1.098573755
        30        -75.562412895        -75.556517801        -75.545925098        -75.538292146        -75.540241937        -75.549406549        -75.558587822        -75.562492883          1.228608863          1.204936499          1.175292338          1.150573859          1.120048106          1.105482481          1.099016811
        31        -75.562413915        -75.556527526        -75.545938996        -75.538296495        -75.540233559        -75.549400543        -75.558586222        -75.562493067          1.228357357          1.204680121          1.175571405          1.150282879          1.120878062          1.105965096          1.099460350
        32        -75.562414919        -75.556537237        -75.545952647        -75.538300922        -75.540225517        -75.549394363        -75.558584603        -75.562493232          1.228100295          1.204449893          1.175795904          1.150076414          1.121635967          1.106461482          1.099905279
        33        -75.562415908        -75.556546924        -75.545966087        -75.538305409        -75.540217765        -75.549388050        -75.558582960        -75.562493382          1.227839227          1.204240371          1.175976636          1.149939683          1.122333676          1.106966941          1.100352187
        34        -75.562416883        -75.556556576        -75.545979346        -75.538309942        -75.540210264        -75.549381639        -75.558581292        -75.562493519          1.227575370          1.204047237          1.176122348          1.149860518          1.122980930          1.107477832          1.100801421
        35        -75.562460918        -75.557096894        -75.546694003        -75.538602987        -75.539853777        -75.548978883        -75.558477742        -75.562496249          1.212623331          1.198045276          1.174459454          1.161674197          1.146394611          1.139210276          1.127598686
        36        -75.562461389        -75.557102843        -75.546705231        -75.538605929        -75.539850212        -75.548976170        -75.558474273        -75.562496546          1.212481459          1.197637733          1.175000945          1.161546649          1.146823122          1.139037431          1.128254219
        37        -75.562461849        -75.557108868        -75.546716009        -75.538608959        -75.539846780        -75.548973160        -75.558471073        -75.562496801          1.212325189          1.197289071          1.175463320          1.161480489          1.147194718          1.138935314          1.128872883
        38        -75.562462297        -75.557114944        -75.546726403        -75.538612058        -75.539843449        -75.548969914        -75.558468109        -75.562497022          1.212157908          1.196989032          1.175860240          1.161462767          1.147521490          1.138892376          1.129459477
        39        -75.562462735        -75.557121051        -75.546736465        -75.538615209        -75.539840197        -75.548966482        -75.558465350        -75.562497213          1.211982367          1.196729183          1.176202886          1.161483119          1.147813135          1.138899020          1.130018065
        40        -75.562463163        -75.557127175        -75.546746242        -75.538618400        -75.539837006        -75.548962905        -75.558462771        -75.562497381          1.211800790          1.196502587          1.176500419          1.161533260          1.148077418          1.138947258          1.130552100
        41        -75.562463583        -75.557133300        -75.546755770        -75.538621621        -75.539833863        -75.548959218        -75.558460350        -75.562497528          1.211615002          1.196303534          1.176760352          1.161606581          1.148320541          1.139030436          1.131064526
        42        -75.562475075        -75.557332597        -75.547025593        -75.538733014        -75.539741039        -75.548819472        -75.558405524        -75.562499228          1.204996038          1.194396038          1.179074752          1.168136391          1.152397510          1.147338874          1.144496156
        43        -75.562475357        -75.557336824        -75.547032924        -75.538735490        -75.539737252        -75.548817572        -75.558404921        -75.562499315          1.204953265          1.194193686          1.179309464          1.167896206          1.152952454          1.147507345          1.144761465
        44        -75.562475634        -75.557341104        -75.547040052        -75.538738051        -75.539733675        -75.548815488        -75.558404347        -75.562499394          1.204900899          1.194020268          1.179499321          1.167719523          1.153449486          1.147698511          1.145021945
        45        -75.562475907        -75.557345423        -75.547047012        -75.538740678        -75.539730278        -75.548813258        -75.558403795        -75.562499467          1.204840764          1.193870336          1.179653251          1.167594852          1.153898480          1.147907171          1.145278874
        46        -75.562476177        -75.557349771        -75.547053829        -75.538743354        -75.539727033        -75.548810913        -75.558403256        -75.562499533          1.204774344          1.193739492          1.179778476          1.167512792          1.154307535          1.148129166          1.145533230
        47        -75.562476443        -75.557354138        -75.547060527        -75.538746068        -75.539723918        -75.548808477        -75.558402726        -75.562499595          1.204702847          1.193624189          1.179880833          1.167465650          1.154683291          1.148361179          1.145785760
        48        -75.562476706        -75.557358517        -75.547067123        -75.538748808        -75.539720915        -75.548805971        -75.558402200        -75.562499653          1.204627259          1.193521561          1.179965037          1.167447125          1.155031200          1.148600570          1.146037019
        49        -75.562488728        -75.557601846        -75.547404577        -75.538911484        -75.539584221        -75.548646377        -75.558374153        -75.562501317          1.199979149          1.191319572          1.179595924          1.174123983          1.167015090          1.164099094          1.159838029
        50        -75.562488884        -75.557605241        -75.547410219        -75.538912933        -75.539582740        -75.548645371        -75.558372991        -75.562501418          1.199903273          1.191196786          1.179910442          1.174041608          1.167243618          1.164067990          1.160148979
        51        -75.562489036        -75.557608647        -75.547415654        -75.538914454        -75.539581332        -75.548644238        -75.558371943        -75.562501508          1.199824380          1.191097276          1.180184340          1.173994661          1.167444124          1.164066602          1.160444811
        52        -75.562489186        -75.557612054        -75.547420914        -75.538916032        -75.539579982        -75.548643008        -75.558370992        -75.562501587          1.199743667          1.191016683          1.180424459          1.173976165          1.167622554          1.164089904          1.160727508
        53        -75.562489332        -75.557615455        -75.547426023        -75.538917657        -75.539578678        -75.548641702        -75.558370127        -75.562501657          1.199662078          1.190951461          1.180636418          1.173980478          1.167783679          1.164133746          1.160998740
        54        -75.562489476        -75.557618845        -75.547431001        -75.538919318        -75.539577409        -75.548640337        -75.558369336        -75.562501721          1.199580348          1.190898723          1.180824832          1.174003045          1.167931325          1.164194698          1.161259917
        55        -75.562489618        -75.557622221        -75.547435866        -75.538921008        -75.539576168        -75.548638930        -75.558368612        -75.562501779          1.199499050          1.190856121          1.180993505          1.174040186          1.168068549          1.164269917          1.161512237
        56        -75.562493954        -75.557739533        -75.547587520        -75.538986845        -75.539537900        -75.548579594        -75.558354215        -75.562502806          1.196753799          1.191318948          1.183299773          1.178246085          1.170771341          1.169593181          1.168993263
        57        -75.562494055        -75.557741680        -75.547591407        -75.538988147        -75.539536272        -75.548579316        -75.558354249        -75.562502848          1.196785802          1.191215353          1.183459300          1.178125244          1.171101661          1.169663172          1.169140895
        58        -75.562494155        -75.557743873        -75.547595173        -75.538989505        -75.539534755        -75.548578915        -75.558354307        -75.562502887          1.196810539          1.191131111          1.183592110          1.178040980          1.171397134          1.169749086          1.169284710
        59        -75.562494254        -75.557746104        -75.547598837        -75.538990907        -75.539533334        -75.548578417        -75.558354384        -75.562502924          1.196829250          1.191062697          1.183703560          1.177986554          1.171663730          1.169847535          1.169425615
        60        -75.562494351        -75.557748363        -75.547602418        -75.538992341        -75.539531991        -75.548577839        -75.558354474        -75.562502958          1.196842958          1.191007245          1.183797977          1.177956472          1.171906341          1.169955786          1.169564322
        61        -75.562494448        -75.557750645        -75.547605928        -75.538993801        -75.539530717        -75.548577197        -75.558354573        -75.562502991          1.196852503          1.190962428          1.183878858          1.177946247          1.172128979          1.170071645          1.169701386
        62        -75.562494543        -75.557752945        -75.547609380        -75.538995278        -75.539529500        -75.548576504        -75.558354678        -75.562503023          1.196858579          1.190926353          1.183949022          1.177952218          1.172334937          1.170193347          1.169837235
        63        -75.562495644        -75.557779673        -75.547651654        -75.539012264        -75.539513701        -75.548569472        -75.558355673        -75.562503342          1.197041490          1.190288766          1.185052252          1.177630178          1.175175106          1.171485948          1.171501025
        64        -75.562495930        -75.557787413        -75.547662219        -75.539017346        -75.539510406        -75.548566537        -75.558356096        -75.562503414          1.197027727          1.190281424          1.185144753          1.177852911          1.175644940          1.171962526          1.171934946
        65        -75.562499681        -75.557905108        -75.547811698        -75.539096087        -75.539469561        -75.548515153        -75.558362568        -75.562504363          1.196616606          1.191457985          1.185102804          1.183505818          1.180237789          1.179871026          1.178489052
        66        -75.562499741        -75.557907090        -75.547814780        -75.539096628        -75.539468955        -75.548515183        -75.558362282        -75.562504407          1.196595637          1.191421680          1.185343200          1.183422266          1.180396003          1.179846446          1.178656121
        67        -75.562499800        -75.557909074        -75.547817732        -75.539097237        -75.539468406        -75.548515127        -75.558362059        -75.562504447          1.196573607          1.191399330          1.185554407          1.183367012          1.180533423          1.179840302          1.178814753
        68        -75.562499858        -75.557911057        -75.547820576        -75.539097900        -75.539467902        -75.548515003        -75.558361891        -75.562504484          1.196551190          1.191388132          1.185741335          1.183334728          1.180654371          1.179849367          1.178966129
         0        -75.558433178        -75.549576947        -75.540700590        -75.537017105        -75.540680237        -75.549534903        -75.558366570        -75.562171286          1.031077875          1.011308576          0.965350863          0.965350868          1.011308540          1.031077350          1.036119329
         1        -75.558489827        -75.549598943        -75.540732216        -75.537034025        -75.540712102        -75.549557480        -75.558376218        -75.562186794          1.037217512          1.009997356          0.967586692          0.967587040          1.009998280          1.030407765          1.035739057
         2        -75.558545662        -75.549623999        -75.540761809        -75.537049911        -75.540741931        -75.549579846        -75.558385721        -75.562200239          1.042961440          1.009239964          0.969652817          0.969653457          1.008901274          1.029727676          1.035366698
         3        -75.558600703        -75.549651699        -75.540789704        -75.537064884        -75.540769937        -75.549601932        -75.558395103        -75.562211992          1.048355175          1.008953044          0.971584767          0.971568632          1.007987092          1.029048417          1.034997973
         4        -75.558654973        -75.549681680        -75.540816182        -75.537079048        -75.540796305        -75.549623686        -75.558404379        -75.562222352          1.053438093          1.009065547          0.973411361          0.973349555          1.007229846          1.028378564          1.034629980
         5        -75.558708489        -75.549713632        -75.540841484        -75.537092491        -75.540821195        -75.549645070        -75.558413559        -75.562231562          1.058244321          1.009516864          0.975155908          0.975011729          1.006607522          1.027724487          1.034260879
         6        -75.558761268        -75.549747285        -75.540865809        -75.537105287        -75.540844749        -75.549666053        -75.558422647        -75.562239822          1.062803451          1.010255263          0.976837192          0.976569225          1.006101402          1.027090808          1.033889640
         7        -75.560306647        -75.551248924        -75.541446344        -75.537386963        -75.541341682        -75.550286650        -75.558693460        -75.562376206          1.166980151          1.102498596          1.018235368          1.007267007          1.015216161          1.008271087          1.021723867
         8        -75.560337964        -75.551282978        -75.541482052        -75.537391461        -75.541349051        -75.550287666        -75.558701211        -75.562378317          1.169314161          1.101723869          1.021983436          1.008287543          1.014607510          1.009421090          1.021151705
         9        -75.560368866        -75.551318380        -75.541516071        -75.537395891        -75.541355748        -75.550289443        -75.558708321        -75.562380369          1.171466388          1.101323552          1.025369819          1.009361629          1.014166046          1.010400698          1.020663887
        10        -75.560399356        -75.551354873        -75.541548669        -75.537400259        -75.541361815        -75.550291823        -75.558714879        -75.562382365          1.173463367          1.101233999          1.028451957          1.010474330          1.013869368          1.011238833          1.020248096
        11        -75.560429442        -75.551392242        -75.541580071        -75.537404569        -75.541367296        -75.550294675        -75.558720960        -75.562384310          1.175327351          1.101401987          1.031277638          1.011613930          1.013698003          1.011959891          1.019894008
        12        -75.560459127        -75.551430307        -75.541610465        -75.537408827        -75.541372230        -75.550297884        -75.558726627        -75.562386208          1.177077006          1.101782995          1.033886643          1.012771277          1.013635048          1.012584434          1.019592974
        13        -75.560488417        -75.551468916        -75.541640010        -75.537413035        -75.541376651        -75.550301357        -75.558731935        -75.562388061          1.178727994          1.102339775          1.036312106          1.013939263          1.013665848          1.013129764          1.019337755
        14        -75.561933288        -75.554123002        -75.543335752        -75.537667780        -75.541472422        -75.550586805        -75.558928980        -75.562468111          1.261127441          1.202615689          1.137444458          1.098077786          1.046718472          1.022553833          1.021267256
        15        -75.561941378        -75.554149708        -75.543364278        -75.537671407        -75.541455701        -75.550577213        -75.558929810        -75.562468755          1.260872843          1.202372302          1.138815677          1.097509675          1.048132574          1.023774814          1.021437656
        16        -75.561949338        -75.554176345        -75.543392133        -75.537675099        -75.541439691        -75.550567495        -75.558930274        -75.562469345          1.260602632          1.202206809          1.140010289          1.097136775          1.049440539          1.024952117          1.021657698
        17        -75.561957172        -75.554202879        -75.543419422        -75.537678851        -75.541424283        -75.550557683        -75.558930404        -75.562469889          1.260321269          1.202102259          1.141059380          1.096925498          1.050660061          1.026087436          1.021922971
        18        -75.561964883        -75.554229281        -75.543446234        -75.537682657        -75.541409389        -75.550547802        -75.558930231        -75.562470395          1.260032207          1.202045085          1.141988438          1.096848044          1.051805557          1.027182932          1.022229361
        19        -75.561972474        -75.554255531        -75.543472637        -75.537686513        -75.541394934        -75.550537871        -75.558929782        -75.562470869          1.259738328          1.202024450          1.142818366          1.096881376          1.052888790          1.028241035          1.022573056
        20        -75.561979948        -75.554281615        -75.543498689        -75.537690416        -75.541380856        -75.550527905        -75.558929084        -75.562471314          1.259441401          1.202031735          1.143566305          1.097006388          1.053919377          1.029264312          1.022950544
        21        -75.562354468        -75.556033461        -75.545259880        -75.538084055        -75.540542797        -75.549787057        -75.558783780        -75.562485292          1.240327113          1.216277227          1.167544787          1.140604615          1.108410202          1.091488893          1.062908995
        22        -75.562356411        -75.556044126        -75.545282566        -75.538088866        -75.540534055        -75.549780465        -75.558775167        -75.562486122          1.240341348          1.215109646          1.168642862          1.140331894          1.109204413          1.090974445          1.064346517